ethanol_1molecule.data - created by mBuild; units = real

9 atoms
8 bonds
13 angles
12 dihedrals
0 impropers

5 atom types
5 bond types
7 angle types
4 dihedral types

0.000000 20.000000 xlo xhi
0.000000 20.000000 ylo yhi
0.000000 20.000000 zlo zhi

Masses

1	12.010780	# opls_135
2	1.007947	# opls_140
3	15.999430	# opls_154
4	1.007947	# opls_155
5	12.010780	# opls_157

Pair Coeffs # lj
#	epsilon (kcal/mol)		sigma (Angstrom)
1	0.06600		3.50000		# opls_135
2	0.03000		2.50000		# opls_140
3	0.17000		3.12000		# opls_154
4	0.00000		10.00000		# opls_155
5	0.06600		3.50000		# opls_157

Bond Coeffs # harmonic
#	k(kcal/mol/angstrom^2)		req(angstrom)
1	340.0		1.09		# opls_135	opls_140
2	268.0		1.529		# opls_135	opls_157
3	340.0		1.09		# opls_140	opls_157
4	553.0		0.945		# opls_154	opls_155
5	320.0		1.41		# opls_154	opls_157

Angle Coeffs # harmonic
#	k(kcal/mol/rad^2)		theteq(deg)
1	33.0		107.80000	# opls_140	opls_135	opls_140
2	37.5		110.70000	# opls_140	opls_135	opls_157
3	55.0		108.50000	# opls_155	opls_154	opls_157
4	37.5		110.70000	# opls_135	opls_157	opls_140
5	50.0		109.50000	# opls_135	opls_157	opls_154
6	33.0		107.80000	# opls_140	opls_157	opls_140
7	35.0		109.50000	# opls_140	opls_157	opls_154

Dihedral Coeffs # opls
#	f1(kcal/mol)	f2(kcal/mol)	f3(kcal/mol)	f4(kcal/mol)
1	-0.00000	-0.00000		0.30000		-0.00000	# opls_140	opls_135	opls_157	opls_140
2	0.00000	-0.00000		0.46800		-0.00000	# opls_140	opls_135	opls_157	opls_154
3	-0.35600	-0.17400		0.49200		-0.00000	# opls_155	opls_154	opls_157	opls_135
4	0.00000	-0.00000		0.45000		-0.00000	# opls_155	opls_154	opls_157	opls_140

Atoms # full

1	1	1	-0.180000	3.451163	17.502854	3.338913
2	1	5	0.145000	3.632969	15.994176	3.226206
3	1	3	-0.683000	4.977852	15.681687	2.985727
4	1	2	0.060000	3.793122	17.997701	2.405247
5	1	2	0.060000	4.038089	17.894985	4.196356
6	1	2	0.060000	2.378312	17.739470	3.500060
7	1	2	0.060000	3.021700	15.617250	2.379233
8	1	2	0.060000	3.276389	15.497562	4.157053
9	1	4	0.418000	5.451877	15.781623	3.852438

Bonds

1	2	1	2
2	1	1	4
3	1	1	5
4	1	1	6
5	5	2	3
6	3	2	7
7	3	2	8
8	4	3	9

Angles

1	5	1	2	3
2	4	1	2	7
3	4	1	2	8
4	2	2	1	4
5	2	2	1	5
6	2	2	1	6
7	3	2	3	9
8	7	3	2	7
9	7	3	2	8
10	1	4	1	5
11	1	4	1	6
12	1	5	1	6
13	6	7	2	8

Dihedrals

1	3	1	2	3	9
2	2	3	2	1	4
3	2	3	2	1	5
4	2	3	2	1	6
5	1	4	1	2	7
6	1	4	1	2	8
7	1	5	1	2	7
8	1	5	1	2	8
9	1	6	1	2	7
10	1	6	1	2	8
11	4	7	2	3	9
12	4	8	2	3	9
