ethanol_density_0.789.data - created by mBuild; units = real

1449 atoms
1288 bonds
2093 angles
1932 dihedrals
0 impropers

5 atom types
5 bond types
7 angle types
4 dihedral types

0.000000 25.000000 xlo xhi
0.000000 25.000000 ylo yhi
0.000000 25.000000 zlo zhi

Masses

1	12.010780	# opls_135
2	1.007947	# opls_140
3	15.999430	# opls_154
4	1.007947	# opls_155
5	12.010780	# opls_157

Pair Coeffs # lj
#	epsilon (kcal/mol)		sigma (Angstrom)
1	0.06600		3.50000		# opls_135
2	0.03000		2.50000		# opls_140
3	0.17000		3.12000		# opls_154
4	0.00000		10.00000		# opls_155
5	0.06600		3.50000		# opls_157

Bond Coeffs # harmonic
#	k(kcal/mol/angstrom^2)		req(angstrom)
1	340.0		1.09		# opls_135	opls_140
2	268.0		1.529		# opls_135	opls_157
3	340.0		1.09		# opls_140	opls_157
4	553.0		0.945		# opls_154	opls_155
5	320.0		1.41		# opls_154	opls_157

Angle Coeffs # harmonic
#	k(kcal/mol/rad^2)		theteq(deg)
1	33.0		107.80000	# opls_140	opls_135	opls_140
2	37.5		110.70000	# opls_140	opls_135	opls_157
3	55.0		108.50000	# opls_155	opls_154	opls_157
4	37.5		110.70000	# opls_135	opls_157	opls_140
5	50.0		109.50000	# opls_135	opls_157	opls_154
6	33.0		107.80000	# opls_140	opls_157	opls_140
7	35.0		109.50000	# opls_140	opls_157	opls_154

Dihedral Coeffs # opls
#	f1(kcal/mol)	f2(kcal/mol)	f3(kcal/mol)	f4(kcal/mol)
1	-0.00000	-0.00000		0.30000		-0.00000	# opls_140	opls_135	opls_157	opls_140
2	0.00000	-0.00000		0.46800		-0.00000	# opls_140	opls_135	opls_157	opls_154
3	-0.35600	-0.17400		0.49200		-0.00000	# opls_155	opls_154	opls_157	opls_135
4	0.00000	-0.00000		0.45000		-0.00000	# opls_155	opls_154	opls_157	opls_140

Atoms # full

1	1	1	-0.180000	14.709528	7.893545	21.201082
2	1	5	0.145000	16.232481	7.926293	21.163544
3	1	3	-0.683000	16.742972	8.307025	22.411995
4	1	2	0.060000	14.314676	8.892865	21.482136
5	1	2	0.060000	14.362089	7.141992	21.941292
6	1	2	0.060000	14.316338	7.619369	20.199486
7	1	2	0.060000	16.560935	8.665535	20.402803
8	1	2	0.060000	16.627157	6.927868	20.867523
9	1	4	0.418000	16.668070	7.513013	23.003444
10	2	1	-0.180000	11.910687	8.332647	17.055240
11	2	5	0.145000	12.350712	6.952864	17.528994
12	2	3	-0.683000	13.133520	7.061383	18.686416
13	2	2	0.060000	12.799969	8.966253	16.852110
14	2	2	0.060000	11.283889	8.820709	17.831370
15	2	2	0.060000	11.316354	8.236023	16.122289
16	2	2	0.060000	12.956081	6.471547	16.732157
17	2	2	0.060000	11.458776	6.313510	17.718532
18	2	4	0.418000	12.507678	7.237107	19.436961
19	3	1	-0.180000	9.722488	19.971799	22.053443
20	3	5	0.145000	10.192789	21.416000	22.175785
21	3	3	-0.683000	11.562586	21.459604	22.468947
22	3	2	0.060000	9.924327	19.424956	22.998833
23	3	2	0.060000	10.253452	19.466930	21.218793
24	3	2	0.060000	8.631069	19.949615	21.850268
25	3	2	0.060000	9.635388	21.910681	22.998999
26	3	2	0.060000	9.976863	21.967464	21.232645
27	3	4	0.418000	12.040723	21.263355	21.621157
28	4	1	-0.180000	17.224680	14.695435	5.560675
29	4	5	0.145000	16.507002	13.874771	4.496102
30	4	3	-0.683000	15.522094	14.647704	3.866245
31	4	2	0.060000	16.495016	15.063837	6.312614
32	4	2	0.060000	17.736835	15.562856	5.092983
33	4	2	0.060000	17.981820	14.064533	6.072210
34	4	2	0.060000	16.020864	13.000562	4.978301
35	4	2	0.060000	17.241278	13.493623	3.750574
36	4	4	0.418000	15.995090	15.250716	3.234955
37	5	1	-0.180000	10.054029	8.474265	20.353625
38	5	5	0.145000	8.752863	7.701022	20.529486
39	5	3	-0.683000	9.020201	6.362687	20.848200
40	5	2	0.060000	10.666753	8.009919	19.552069
41	5	2	0.060000	10.630962	8.471339	21.302623
42	5	2	0.060000	9.829913	9.524963	20.072960
43	5	2	0.060000	8.179669	7.734234	19.578995
44	5	2	0.060000	8.132643	8.175803	21.323311
45	5	4	0.418000	9.284153	6.346050	21.805242
46	6	1	-0.180000	22.011004	7.678166	2.969139
47	6	5	0.145000	22.078609	9.170030	2.666420
48	6	3	-0.683000	22.084805	9.909407	3.856996
49	6	2	0.060000	21.098269	7.451174	3.559841
50	6	2	0.060000	22.906854	7.364813	3.545958
51	6	2	0.060000	21.977164	7.104685	2.018908
52	6	2	0.060000	21.187710	9.460131	2.070410
53	6	2	0.060000	22.986451	9.394628	2.061747
54	6	4	0.418000	23.001014	9.835293	4.232422
55	7	1	-0.180000	7.944029	17.832874	19.207269
56	7	5	0.145000	6.995412	16.665918	18.961900
57	7	3	-0.683000	5.693307	17.005253	19.353772
58	7	2	0.060000	7.933374	18.111805	20.282269
59	7	2	0.060000	7.635778	18.709635	18.599217
60	7	2	0.060000	8.976675	17.542333	18.920575
61	7	2	0.060000	7.332153	15.792660	19.559488
62	7	2	0.060000	7.017605	16.377419	17.886482
63	7	4	0.418000	5.326473	17.592199	18.641870
64	8	1	-0.180000	11.359915	10.009540	14.563457
65	8	5	0.145000	9.925903	9.534730	14.363374
66	8	3	-0.683000	9.652117	9.371780	12.998574
67	8	2	0.060000	11.520603	10.969471	14.028432
68	8	2	0.060000	12.071078	9.250621	14.173911
69	8	2	0.060000	11.555742	10.162966	15.645621
70	8	2	0.060000	9.230753	10.294446	14.778928
71	8	2	0.060000	9.761466	8.579672	14.912076
72	8	4	0.418000	10.085191	8.522301	12.721611
73	9	1	-0.180000	15.319053	17.339139	22.028316
74	9	5	0.145000	13.836794	17.602478	22.263741
75	9	3	-0.683000	13.662017	18.782018	23.000171
76	9	2	0.060000	15.850138	17.259983	23.000542
77	9	2	0.060000	15.764054	18.165921	21.435137
78	9	2	0.060000	15.446021	16.387854	21.469834
79	9	2	0.060000	13.404427	16.755763	22.837517
80	9	2	0.060000	13.302497	17.667249	21.288763
81	9	4	0.418000	13.804927	19.534770	22.368651
82	10	1	-0.180000	22.182447	7.877229	6.124284
83	10	5	0.145000	21.354591	9.132612	6.370323
84	10	3	-0.683000	22.149542	10.137417	6.938309
85	10	2	0.060000	22.620824	7.517787	7.079359
86	10	2	0.060000	23.000772	8.094504	5.405540
87	10	2	0.060000	21.535897	7.079480	5.701749
88	10	2	0.060000	20.528771	8.890951	7.072255
89	10	2	0.060000	20.903536	9.484067	5.414667
90	10	4	0.418000	22.698968	10.514712	6.202336
91	11	1	-0.180000	8.676843	12.218772	2.961906
92	11	5	0.145000	9.695435	12.973589	3.807239
93	11	3	-0.683000	9.113513	13.396105	5.010167
94	11	2	0.060000	7.801710	12.869158	2.750529
95	11	2	0.060000	8.334608	11.308824	3.498866
96	11	2	0.060000	9.140666	11.914831	1.999900
97	11	2	0.060000	10.042900	13.866294	3.245605
98	11	2	0.060000	10.579064	12.325718	4.006518
99	11	4	0.418000	9.060528	12.596324	5.596187
100	12	1	-0.180000	5.545395	16.889468	2.788916
101	12	5	0.145000	4.621442	15.710179	3.067221
102	12	3	-0.683000	3.386275	16.162067	3.551319
103	12	2	0.060000	5.696528	17.481108	3.716634
104	12	2	0.060000	5.104913	17.543037	2.006433
105	12	2	0.060000	6.529785	16.517971	2.434044
106	12	2	0.060000	5.088166	15.056562	3.834059
107	12	2	0.060000	4.482033	15.109207	2.140050
108	12	4	0.418000	2.883897	16.508427	2.768039
109	13	1	-0.180000	18.643983	9.373681	2.952987
110	13	5	0.145000	18.355604	10.869243	2.908289
111	13	3	-0.683000	19.552917	11.597477	2.925787
112	13	2	0.060000	19.224002	9.125586	3.867081
113	13	2	0.060000	19.226271	9.070350	2.057226
114	13	2	0.060000	17.688257	8.808594	2.968197
115	13	2	0.060000	17.753960	11.149590	3.798523
116	13	2	0.060000	17.761549	11.114990	1.998918
117	13	4	0.418000	19.936215	11.535568	2.011934
118	14	1	-0.180000	5.231254	7.833501	10.393650
119	14	5	0.145000	3.855646	7.187308	10.284091
120	14	3	-0.683000	3.980313	5.818177	10.011831
121	14	2	0.060000	5.796854	7.685844	9.449279
122	14	2	0.060000	5.799311	7.381644	11.234241
123	14	2	0.060000	5.119397	8.922374	10.580223
124	14	2	0.060000	3.294470	7.666828	9.454495
125	14	2	0.060000	3.283722	7.348340	11.226015
126	14	4	0.418000	4.235623	5.380986	10.865973
127	15	1	-0.180000	22.036480	18.759229	4.661905
128	15	5	0.145000	22.293429	19.577394	5.921449
129	15	3	-0.683000	22.999952	20.746447	5.607873
130	15	2	0.060000	22.999957	18.499345	4.174347
131	15	2	0.060000	21.411876	19.339881	3.950449
132	15	2	0.060000	21.502370	17.822434	4.926685
133	15	2	0.060000	22.898949	18.973131	6.629472
134	15	2	0.060000	21.327666	19.825191	6.417583
135	15	4	0.418000	22.345006	21.374448	5.204714
136	16	1	-0.180000	17.497401	17.011156	8.868599
137	16	5	0.145000	18.171018	15.851208	9.591529
138	16	3	-0.683000	18.046275	16.003017	10.979182
139	16	2	0.060000	17.953064	17.972972	9.186126
140	16	2	0.060000	16.411535	17.026871	9.101201
141	16	2	0.060000	17.628024	16.895154	7.772038
142	16	2	0.060000	19.249956	15.837579	9.329243
143	16	2	0.060000	17.723462	14.886212	9.261795
144	16	4	0.418000	17.115369	15.746345	11.210287
145	17	1	-0.180000	14.734731	3.015569	4.444197
146	17	5	0.145000	14.760465	2.973524	2.921227
147	17	3	-0.683000	13.864022	2.007269	2.444855
148	17	2	0.060000	14.999119	2.018739	4.856470
149	17	2	0.060000	13.722718	3.301843	4.801034
150	17	2	0.060000	15.469367	3.763367	4.810360
151	17	2	0.060000	15.784345	2.708598	2.582744
152	17	2	0.060000	14.509474	3.977088	2.508781
153	17	4	0.418000	12.955215	2.399041	2.525235
154	18	1	-0.180000	6.486612	22.109148	22.403250
155	18	5	0.145000	6.681428	21.874902	20.910252
156	18	3	-0.683000	7.264525	23.000237	20.312083
157	18	2	0.060000	5.844201	23.000133	22.567552
158	18	2	0.060000	7.468900	22.271144	22.895514
159	18	2	0.060000	5.997729	21.223149	22.860377
160	18	2	0.060000	5.692442	21.692245	20.439475
161	18	2	0.060000	7.313661	20.972907	20.746131
162	18	4	0.418000	8.228405	22.980606	20.549626
163	19	1	-0.180000	14.399713	3.697965	15.497390
164	19	5	0.145000	15.425843	2.936613	14.667169
165	19	3	-0.683000	16.549406	3.738675	14.425321
166	19	2	0.060000	14.095110	4.625535	14.967887
167	19	2	0.060000	14.830986	3.965941	16.485139
168	19	2	0.060000	13.502738	3.063335	15.657534
169	19	2	0.060000	14.970073	2.657411	13.693820
170	19	2	0.060000	15.719896	1.999444	15.192045
171	19	4	0.418000	17.077976	3.747701	15.265802
172	20	1	-0.180000	4.486901	13.233858	12.649947
173	20	5	0.145000	3.618208	12.625730	13.744214
174	20	3	-0.683000	2.722288	13.581113	14.242971
175	20	2	0.060000	5.047465	14.105241	13.049946
176	20	2	0.060000	3.853539	13.565688	11.800124
177	20	2	0.060000	5.211591	12.476626	12.283354
178	20	2	0.060000	4.269588	12.279304	14.574142
179	20	2	0.060000	3.067576	11.743299	13.346257
180	20	4	0.418000	1.998244	13.670205	13.569399
181	21	1	-0.180000	22.316331	2.988601	22.047010
182	21	5	0.145000	20.870659	3.468700	22.084502
183	21	3	-0.683000	19.993572	2.375586	22.081273
184	21	2	0.060000	22.487727	2.369094	21.141265
185	21	2	0.060000	22.541273	2.384067	22.951110
186	21	2	0.060000	23.000387	3.862857	22.020376
187	21	2	0.060000	20.671011	4.089525	21.185723
188	21	2	0.060000	20.703411	4.101757	22.985344
189	21	4	0.418000	20.004872	1.999841	23.000275
190	22	1	-0.180000	15.546802	11.566348	18.584457
191	22	5	0.145000	14.554253	12.600705	18.067914
192	22	3	-0.683000	15.113728	13.884420	18.124940
193	22	2	0.060000	15.836580	11.806333	19.629434
194	22	2	0.060000	16.455606	11.557435	17.946138
195	22	2	0.060000	15.082279	10.558046	18.561821
196	22	2	0.060000	13.643952	12.579223	18.703507
197	22	2	0.060000	14.253088	12.351224	17.025173
198	22	4	0.418000	15.745563	13.952863	17.362067
199	23	1	-0.180000	9.845777	15.853578	7.887192
200	23	5	0.145000	10.344143	14.813178	8.882714
201	23	3	-0.683000	11.610539	14.345451	8.506333
202	23	2	0.060000	9.798748	15.413154	6.868686
203	23	2	0.060000	10.529316	16.728848	7.875586
204	23	2	0.060000	8.830368	16.194889	8.179455
205	23	2	0.060000	9.637042	13.957096	8.897494
206	23	2	0.060000	10.377184	15.251234	9.906073
207	23	4	0.418000	12.260541	15.052859	8.757230
208	24	1	-0.180000	21.037446	15.921229	2.853721
209	24	5	0.145000	22.558459	15.881514	2.936227
210	24	3	-0.683000	23.000606	14.570591	3.160231
211	24	2	0.060000	20.595418	15.528673	3.793961
212	24	2	0.060000	20.685370	15.305130	1.999367
213	24	2	0.060000	20.697945	16.967999	2.705468
214	24	2	0.060000	22.892906	16.520481	3.780592
215	24	2	0.060000	23.000928	16.288775	1.998885
216	24	4	0.418000	22.928584	14.094436	2.291919
217	25	1	-0.180000	17.806567	14.795959	18.695542
218	25	5	0.145000	18.298253	14.023314	17.477704
219	25	3	-0.683000	18.354750	14.863445	16.357356
220	25	2	0.060000	16.802133	15.224739	18.493547
221	25	2	0.060000	18.513119	15.618220	18.936639
222	25	2	0.060000	17.738160	14.113731	19.568955
223	25	2	0.060000	17.592660	13.192432	17.265902
224	25	2	0.060000	19.299052	13.581529	17.686215
225	25	4	0.418000	19.167625	15.423690	16.463351
226	26	1	-0.180000	18.697942	6.761718	12.535508
227	26	5	0.145000	19.252500	7.087366	11.154100
228	26	3	-0.683000	19.322460	8.475145	10.971437
229	26	2	0.060000	17.688931	7.210118	12.655408
230	26	2	0.060000	19.371937	7.163124	13.321676
231	26	2	0.060000	18.619850	5.660804	12.657393
232	26	2	0.060000	18.578723	6.659014	10.382332
233	26	2	0.060000	20.258034	6.625218	11.029329
234	26	4	0.418000	20.114791	8.788950	11.480960
235	27	1	-0.180000	22.021020	20.211591	12.898109
236	27	5	0.145000	22.297571	20.258393	14.395839
237	27	3	-0.683000	22.888614	21.480357	14.744641
238	27	2	0.060000	22.966893	20.349103	12.332464
239	27	2	0.060000	21.306942	21.014276	12.616603
240	27	2	0.060000	21.580184	19.228487	12.629525
241	27	2	0.060000	22.994269	19.435719	14.662120
242	27	2	0.060000	21.350937	20.105929	14.962308
243	27	4	0.418000	22.161351	22.156332	14.749457
244	28	1	-0.180000	13.719806	11.273247	5.197708
245	28	5	0.145000	13.276842	12.198404	4.070883
246	28	3	-0.683000	14.355310	12.974128	3.624397
247	28	2	0.060000	14.130722	11.869589	6.039768
248	28	2	0.060000	14.499599	10.572238	4.831696
249	28	2	0.060000	12.851281	10.685420	5.562523
250	28	2	0.060000	12.481942	12.875572	4.448593
251	28	2	0.060000	12.851594	11.600623	3.232987
252	28	4	0.418000	14.917399	12.380944	3.060425
253	29	1	-0.180000	6.983099	19.299071	16.187580
254	29	5	0.145000	6.715615	20.748243	16.575160
255	29	3	-0.683000	5.472866	21.164409	16.078604
256	29	2	0.060000	6.962254	19.191155	15.082383
257	29	2	0.060000	6.212040	18.636057	16.634051
258	29	2	0.060000	7.982119	18.990124	16.561047
259	29	2	0.060000	7.508232	21.392600	16.139673
260	29	2	0.060000	6.751081	20.858430	17.682793
261	29	4	0.418000	4.782689	20.766538	16.671251
262	30	1	-0.180000	2.740200	9.956090	9.918339
263	30	5	0.145000	3.020713	11.109519	10.873734
264	30	3	-0.683000	3.928651	10.712137	11.864655
265	30	2	0.060000	2.331980	9.088701	10.479172
266	30	2	0.060000	3.675744	9.650800	9.403544
267	30	2	0.060000	1.998117	10.273776	9.155873
268	30	2	0.060000	2.071280	11.415960	11.361339
269	30	2	0.060000	3.416328	11.983806	10.308613
270	30	4	0.418000	4.826382	10.704440	11.440514
271	31	1	-0.180000	2.922014	3.167147	10.624060
272	31	5	0.145000	2.875204	3.563585	12.094608
273	31	3	-0.683000	2.746043	2.425715	12.902543
274	31	2	0.060000	1.999768	2.612009	10.350518
275	31	2	0.060000	3.806586	2.524211	10.430092
276	31	2	0.060000	2.994899	4.077941	9.993103
277	31	2	0.060000	1.998738	4.223846	12.264753
278	31	2	0.060000	3.793617	4.132744	12.364470
279	31	4	0.418000	3.641558	1.998148	12.935964
280	32	1	-0.180000	11.458635	17.644336	3.200542
281	32	5	0.145000	9.977179	17.971806	3.059410
282	32	3	-0.683000	9.718731	19.270072	3.519734
283	32	2	0.060000	11.768973	17.737520	4.262873
284	32	2	0.060000	12.063850	18.339358	2.580770
285	32	2	0.060000	11.645993	16.604097	2.860299
286	32	2	0.060000	9.387240	17.253392	3.666815
287	32	2	0.060000	9.663473	17.864031	1.996291
288	32	4	0.418000	10.032909	19.890381	2.810941
289	33	1	-0.180000	16.718741	12.897665	14.834268
290	33	5	0.145000	18.180270	13.125122	14.468122
291	33	3	-0.683000	18.318734	14.304836	13.724286
292	33	2	0.060000	16.100928	12.838512	13.913209
293	33	2	0.060000	16.350024	13.731374	15.468644
294	33	2	0.060000	16.617826	11.946127	15.397612
295	33	2	0.060000	18.537630	12.271674	13.854113
296	33	2	0.060000	18.801157	13.169794	15.391568
297	33	4	0.418000	18.252323	15.056661	14.369441
298	34	1	-0.180000	22.056245	10.175584	18.937113
299	34	5	0.145000	22.374045	11.139273	17.800375
300	34	3	-0.683000	21.190723	11.626246	17.228716
301	34	2	0.060000	21.443484	9.330146	18.558564
302	34	2	0.060000	21.496492	10.702345	19.738771
303	34	2	0.060000	23.000201	9.774370	19.362483
304	34	2	0.060000	22.952879	10.601674	17.019974
305	34	2	0.060000	23.000641	11.979060	18.177714
306	34	4	0.418000	20.834947	12.311529	17.852966
307	35	1	-0.180000	2.454906	17.945272	13.585910
308	35	5	0.145000	3.964876	17.927464	13.789717
309	35	3	-0.683000	4.558307	19.014672	13.133967
310	35	2	0.060000	2.217261	17.908284	12.501614
311	35	2	0.060000	2.021598	18.869453	14.023620
312	35	2	0.060000	1.999545	17.064009	14.084898
313	35	2	0.060000	4.377072	16.987015	13.366943
314	35	2	0.060000	4.202081	17.949898	14.877595
315	35	4	0.418000	4.384412	19.814520	13.695999
316	36	1	-0.180000	5.391347	5.624880	21.904014
317	36	5	0.145000	6.620663	6.515944	21.774969
318	36	3	-0.683000	6.280621	7.853941	22.016473
319	36	2	0.060000	4.608388	5.951257	21.187081
320	36	2	0.060000	4.986834	5.679903	22.936874
321	36	2	0.060000	5.667083	4.572426	21.682032
322	36	2	0.060000	7.024247	6.430441	20.744000
323	36	2	0.060000	7.410687	6.179028	22.483911
324	36	4	0.418000	6.182990	7.948956	22.999995
325	37	1	-0.180000	6.419524	22.148171	3.839699
326	37	5	0.145000	7.663646	21.755782	3.052262
327	37	3	-0.683000	8.330161	20.699503	3.688047
328	37	2	0.060000	6.701221	22.445717	4.872004
329	37	2	0.060000	5.711865	21.293462	3.886046
330	37	2	0.060000	5.916516	23.004182	3.342513
331	37	2	0.060000	8.348235	22.628337	2.996821
332	37	2	0.060000	7.381983	21.471510	2.012981
333	37	4	0.418000	7.813084	19.875903	3.487573
334	38	1	-0.180000	11.444118	4.101626	19.883229
335	38	5	0.145000	10.554474	2.971387	19.380278
336	38	3	-0.683000	9.287934	3.463606	19.037078
337	38	2	0.060000	10.976706	4.589768	20.764583
338	38	2	0.060000	11.590993	4.856926	19.082349
339	38	2	0.060000	12.434107	3.695124	20.179276
340	38	2	0.060000	10.437845	2.215625	20.185453
341	38	2	0.060000	11.030694	2.473078	18.505548
342	38	4	0.418000	9.388196	3.918471	18.160196
343	39	1	-0.180000	5.263013	8.689729	20.045990
344	39	5	0.145000	5.064498	10.092084	20.608003
345	39	3	-0.683000	5.594669	10.178216	21.902487
346	39	2	0.060000	4.772647	7.942898	20.705783
347	39	2	0.060000	6.346652	8.457516	19.973451
348	39	2	0.060000	4.813489	8.625595	19.032688
349	39	2	0.060000	3.977547	10.315070	20.651605
350	39	2	0.060000	5.543983	10.841598	19.938248
351	39	4	0.418000	6.580383	10.242366	21.801853
352	40	1	-0.180000	19.766614	13.302647	4.345021
353	40	5	0.145000	21.039152	12.570647	4.753297
354	40	3	-0.683000	22.160606	13.381407	4.531486
355	40	2	0.060000	19.820048	13.588960	3.273242
356	40	2	0.060000	19.637985	14.217379	4.961606
357	40	2	0.060000	18.888558	12.640334	4.497751
358	40	2	0.060000	21.138899	11.648263	4.143096
359	40	2	0.060000	20.978654	12.271135	5.824222
360	40	4	0.418000	22.179748	14.047121	5.267919
361	41	1	-0.180000	14.707503	22.359834	13.968386
362	41	5	0.145000	13.808158	21.667171	14.984882
363	41	3	-0.683000	12.847593	20.883043	14.331698
364	41	2	0.060000	14.097458	22.995122	13.291782
365	41	2	0.060000	15.254608	21.604370	13.365553
366	41	2	0.060000	15.444987	23.000362	14.496409
367	41	2	0.060000	13.287581	22.436904	15.592827
368	41	2	0.060000	14.422134	21.041789	15.672034
369	41	4	0.418000	13.313039	20.061669	14.024157
370	42	1	-0.180000	21.696551	3.083606	7.162407
371	42	5	0.145000	20.892554	2.642315	8.379255
372	42	3	-0.683000	20.454539	3.758267	9.105191
373	42	2	0.060000	22.568640	3.691923	7.483267
374	42	2	0.060000	21.059412	3.688340	6.482843
375	42	2	0.060000	22.062493	2.191339	6.612031
376	42	2	0.060000	21.538189	2.020662	9.034838
377	42	2	0.060000	20.026546	2.020308	8.057716
378	42	4	0.418000	19.687474	4.140072	8.603480
379	43	1	-0.180000	9.957072	5.976005	15.584233
380	43	5	0.145000	11.336891	5.394240	15.302251
381	43	3	-0.683000	11.866946	4.812163	16.461741
382	43	2	0.060000	10.022537	6.735129	16.392308
383	43	2	0.060000	9.259434	5.169962	15.895765
384	43	2	0.060000	9.560232	6.459565	14.666815
385	43	2	0.060000	12.013674	6.209700	14.970474
386	43	2	0.060000	11.272794	4.643719	14.481971
387	43	4	0.418000	11.405687	3.940641	16.578217
388	44	1	-0.180000	20.255139	17.435337	18.626613
389	44	5	0.145000	20.862072	18.732928	18.107234
390	44	3	-0.683000	20.206007	19.144969	16.939334
391	44	2	0.060000	20.330327	16.643542	17.851404
392	44	2	0.060000	19.186867	17.591191	18.887306
393	44	2	0.060000	20.801581	17.103754	19.534589
394	44	2	0.060000	21.934506	18.564068	17.873872
395	44	2	0.060000	20.799398	19.522279	18.890334
396	44	4	0.418000	19.340163	19.538849	17.224025
397	45	1	-0.180000	5.044911	14.106713	21.147300
398	45	5	0.145000	5.634542	14.054905	19.743193
399	45	3	-0.683000	5.071961	12.996588	19.016793
400	45	2	0.060000	5.230766	13.146316	21.673262
401	45	2	0.060000	3.950595	14.288961	21.095201
402	45	2	0.060000	5.519015	14.929996	21.722102
403	45	2	0.060000	6.731058	13.895278	19.815711
404	45	2	0.060000	5.460508	15.023394	19.221665
405	45	4	0.418000	4.165184	13.292206	18.740672
406	46	1	-0.180000	2.807755	19.768933	18.230933
407	46	5	0.145000	2.957714	18.979025	16.936551
408	46	3	-0.683000	3.999070	18.048104	17.051235
409	46	2	0.060000	3.758022	20.292177	18.469155
410	46	2	0.060000	2.547292	19.085770	19.066938
411	46	2	0.060000	1.999982	20.522408	18.118047
412	46	2	0.060000	3.195002	19.680269	16.108881
413	46	2	0.060000	2.000085	18.466412	16.690738
414	46	4	0.418000	3.648230	17.295301	17.595363
415	47	1	-0.180000	17.675335	18.158408	4.747795
416	47	5	0.145000	18.899027	17.549668	4.074089
417	47	3	-0.683000	18.549088	16.997634	2.834335
418	47	2	0.060000	16.892683	17.382727	4.886770
419	47	2	0.060000	17.266865	18.982101	4.124786
420	47	2	0.060000	17.958968	18.566143	5.740906
421	47	2	0.060000	19.306768	16.744673	4.721250
422	47	2	0.060000	19.688843	18.324657	3.948268
423	47	4	0.418000	18.447391	17.757756	2.203663
424	48	1	-0.180000	16.669633	2.959408	19.760385
425	48	5	0.145000	18.149858	2.722309	20.033483
426	48	3	-0.683000	18.865246	3.921956	19.918344
427	48	2	0.060000	16.534082	3.384233	18.743188
428	48	2	0.060000	16.251499	3.664617	20.509586
429	48	2	0.060000	16.118343	1.997753	19.825695
430	48	2	0.060000	18.544645	1.998211	19.289903
431	48	2	0.060000	18.283782	2.282828	21.047963
432	48	4	0.418000	18.685867	4.440021	20.746177
433	49	1	-0.180000	22.110037	11.916877	13.250679
434	49	5	0.145000	22.075906	13.415420	12.976694
435	49	3	-0.683000	20.937072	13.991261	13.556052
436	49	2	0.060000	21.195044	11.435395	12.845089
437	49	2	0.060000	22.167272	11.730004	14.343959
438	49	2	0.060000	23.000355	11.467410	12.762539
439	49	2	0.060000	22.042086	13.583061	11.879498
440	49	2	0.060000	23.000405	13.895237	13.370808
441	49	4	0.418000	21.120083	14.065057	14.529159
442	50	1	-0.180000	11.154352	15.908996	18.781691
443	50	5	0.145000	11.289503	15.155047	17.464435
444	50	3	-0.683000	11.696594	13.834467	17.697960
445	50	2	0.060000	12.123299	15.902499	19.324499
446	50	2	0.060000	10.376994	15.432736	19.415999
447	50	2	0.060000	10.860058	16.960940	18.582264
448	50	2	0.060000	12.053420	15.658315	16.834960
449	50	2	0.060000	10.321524	15.174467	16.914083
450	50	4	0.418000	10.896015	13.343369	18.020098
451	51	1	-0.180000	20.166028	17.228906	7.211349
452	51	5	0.145000	21.625964	17.062438	7.614761
453	51	3	-0.683000	21.767006	15.987230	8.502581
454	51	2	0.060000	19.539572	17.398254	8.112689
455	51	2	0.060000	19.809523	16.318605	6.684363
456	51	2	0.060000	20.062707	18.100865	6.531660
457	51	2	0.060000	21.971141	17.989650	8.118962
458	51	2	0.060000	22.255402	16.907181	6.709249
459	51	4	0.418000	21.712241	15.159484	7.956950
460	52	1	-0.180000	8.952668	12.639578	19.238014
461	52	5	0.145000	8.243067	11.531863	18.469053
462	52	3	-0.683000	8.218547	10.351988	19.225019
463	52	2	0.060000	9.989504	12.327026	19.484637
464	52	2	0.060000	8.404981	12.862857	20.178037
465	52	2	0.060000	8.991564	13.559868	18.617919
466	52	2	0.060000	8.791052	11.338491	17.522794
467	52	2	0.060000	7.208378	11.851715	18.209510
468	52	4	0.418000	7.514046	10.471175	19.914474
469	53	1	-0.180000	9.151028	2.635762	15.186321
470	53	5	0.145000	7.818053	3.342878	14.974117
471	53	3	-0.683000	6.795372	2.405756	14.773829
472	53	2	0.060000	9.388028	1.999669	14.307254
473	53	2	0.060000	9.105203	1.999889	16.095729
474	53	2	0.060000	9.957498	3.388168	15.314609
475	53	2	0.060000	7.889989	3.990726	14.075115
476	53	2	0.060000	7.588130	3.991689	15.849576
477	53	4	0.418000	6.575762	2.030119	15.666322
478	54	1	-0.180000	17.599285	21.726525	14.401764
479	54	5	0.145000	18.876436	21.450484	15.185698
480	54	3	-0.683000	19.983771	21.995054	14.521287
481	54	2	0.060000	17.678399	21.294104	13.381816
482	54	2	0.060000	17.429279	22.821171	14.322366
483	54	2	0.060000	16.733604	21.265596	14.922444
484	54	2	0.060000	19.017575	20.352638	15.274582
485	54	2	0.060000	18.790615	21.871719	16.213046
486	54	4	0.418000	19.963910	22.973145	14.691050
487	55	1	-0.180000	3.952847	9.001023	13.443417
488	55	5	0.145000	2.432670	8.916012	13.382562
489	55	3	-0.683000	2.032962	7.655748	12.917635
490	55	2	0.060000	4.384520	8.814960	12.437147
491	55	2	0.060000	4.349028	8.246969	14.156088
492	55	2	0.060000	4.257686	10.012678	13.784875
493	55	2	0.060000	2.053524	9.691285	12.683786
494	55	2	0.060000	1.999947	9.117034	14.388837
495	55	4	0.418000	2.144628	7.024819	13.676144
496	56	1	-0.180000	6.736955	3.440089	18.727129
497	56	5	0.145000	5.217847	3.447320	18.845980
498	56	3	-0.683000	4.777306	4.659942	19.393392
499	56	2	0.060000	7.197110	3.593091	19.726323
500	56	2	0.060000	7.070141	4.249548	18.043595
501	56	2	0.060000	7.075799	2.464201	18.319953
502	56	2	0.060000	4.902135	2.618272	19.513882
503	56	2	0.060000	4.757344	3.279347	17.845994
504	56	4	0.418000	4.830539	5.335136	18.667337
505	57	1	-0.180000	22.146586	5.347124	18.901414
506	57	5	0.145000	21.818520	6.704094	18.290782
507	57	3	-0.683000	22.935293	7.219272	17.618771
508	57	2	0.060000	23.000166	5.443492	19.605442
509	57	2	0.060000	22.412096	4.623113	18.102185
510	57	2	0.060000	21.264244	4.962852	19.455286
511	57	2	0.060000	21.533549	7.407492	19.101405
512	57	2	0.060000	20.953289	6.609335	17.596056
513	57	4	0.418000	23.000289	6.728173	16.758263
514	58	1	-0.180000	3.131082	20.755497	9.479045
515	58	5	0.145000	2.801017	19.554353	10.356641
516	58	3	-0.683000	1.999995	18.643186	9.654979
517	58	2	0.060000	2.194904	21.252541	9.147293
518	58	2	0.060000	3.707592	20.429773	8.587419
519	58	2	0.060000	3.740974	21.483224	10.054729
520	58	2	0.060000	2.245522	19.901692	11.253228
521	58	2	0.060000	3.740453	19.065166	10.700741
522	58	4	0.418000	2.601477	18.157676	9.031782
523	59	1	-0.180000	6.954539	14.387754	16.481074
524	59	5	0.145000	6.348281	13.565237	15.350684
525	59	3	-0.683000	6.147509	12.241319	15.764353
526	59	2	0.060000	7.919858	13.941076	16.800727
527	59	2	0.060000	6.260245	14.415838	17.347460
528	59	2	0.060000	7.135901	15.426307	16.132532
529	59	2	0.060000	7.045092	13.567550	14.486083
530	59	2	0.060000	5.387605	14.021979	15.020930
531	59	4	0.418000	5.338644	12.243403	16.340209
532	60	1	-0.180000	2.646814	20.850858	21.108670
533	60	5	0.145000	3.325161	22.075980	21.709327
534	60	3	-0.683000	2.365789	23.000076	22.145037
535	60	2	0.060000	1.999734	21.153379	20.258194
536	60	2	0.060000	2.026441	20.342906	21.877160
537	60	2	0.060000	3.416235	20.139723	20.740911
538	60	2	0.060000	3.958175	22.556956	20.934058
539	60	2	0.060000	3.985023	21.770128	22.552704
540	60	4	0.418000	2.002036	22.649868	22.999972
541	61	1	-0.180000	19.875889	11.499882	8.177144
542	61	5	0.145000	18.961196	12.534283	7.532770
543	61	3	-0.683000	19.515340	13.816153	7.650775
544	61	2	0.060000	20.033212	11.746533	9.248570
545	61	2	0.060000	20.857654	11.482571	7.658208
546	61	2	0.060000	19.412969	10.493296	8.103284
547	61	2	0.060000	17.978141	12.521187	8.049025
548	61	2	0.060000	18.792248	12.278198	6.462198
549	61	4	0.418000	20.238366	13.876363	6.972923
550	62	1	-0.180000	11.315894	11.355860	7.711014
551	62	5	0.145000	10.535346	10.700533	8.843780
552	62	3	-0.683000	10.260566	9.361239	8.535598
553	62	2	0.060000	10.735709	11.296825	6.765793
554	62	2	0.060000	12.291566	10.843410	7.573479
555	62	2	0.060000	11.502076	12.423335	7.953499
556	62	2	0.060000	9.574449	11.239721	8.981765
557	62	2	0.060000	11.111332	10.773004	9.794167
558	62	4	0.418000	11.103639	8.857546	8.681877
559	63	1	-0.180000	3.182245	12.255092	2.960324
560	63	5	0.145000	4.597208	11.742182	2.722274
561	63	3	-0.683000	5.386615	12.742216	2.138358
562	63	2	0.060000	2.729651	12.581400	2.000000
563	63	2	0.060000	3.200830	13.112823	3.665596
564	63	2	0.060000	2.559133	11.445706	3.395747
565	63	2	0.060000	4.556688	10.871694	2.034018
566	63	2	0.060000	5.045023	11.401683	3.683404
567	63	4	0.418000	5.624022	13.376572	2.864379
568	64	1	-0.180000	22.045737	16.188215	22.171411
569	64	5	0.145000	22.285202	14.840133	21.502683
570	64	3	-0.683000	22.830468	13.931037	22.419426
571	64	2	0.060000	23.000129	16.586409	22.576525
572	64	2	0.060000	21.314496	16.078619	23.000104
573	64	2	0.060000	21.641419	16.907807	21.428659
574	64	2	0.060000	23.000042	14.973237	20.663414
575	64	2	0.060000	21.330483	14.448361	21.084023
576	64	4	0.418000	22.083118	13.630641	23.000035
577	65	1	-0.180000	19.022599	11.617401	20.143619
578	65	5	0.145000	19.612674	10.859050	21.326235
579	65	3	-0.683000	20.927888	11.278811	21.567488
580	65	2	0.060000	19.644139	11.452546	19.238052
581	65	2	0.060000	18.984734	12.704478	20.367867
582	65	2	0.060000	17.991863	11.255900	19.943956
583	65	2	0.060000	19.621271	9.773339	21.093330
584	65	2	0.060000	18.980844	11.013105	22.230285
585	65	4	0.418000	20.865914	12.157902	22.024909
586	66	1	-0.180000	6.414256	3.013573	10.327416
587	66	5	0.145000	6.343036	3.007956	11.849508
588	66	3	-0.683000	7.164292	1.999830	12.372396
589	66	2	0.060000	6.100530	2.025620	9.928585
590	66	2	0.060000	7.451679	3.229221	9.994693
591	66	2	0.060000	5.737834	3.796331	9.924045
592	66	2	0.060000	5.295610	2.813917	12.163089
593	66	2	0.060000	6.643808	4.003451	12.247974
594	66	4	0.418000	8.097468	2.333370	12.310677
595	67	1	-0.180000	2.649755	22.091293	13.770695
596	67	5	0.145000	3.329762	22.101954	12.407117
597	67	3	-0.683000	2.371833	22.081292	11.384311
598	67	2	0.060000	2.010559	21.188418	13.869612
599	67	2	0.060000	2.021126	22.998963	13.890773
600	67	2	0.060000	3.418307	22.078279	14.572022
601	67	2	0.060000	3.970947	21.200095	12.314280
602	67	2	0.060000	3.981776	23.000016	12.314316
603	67	4	0.418000	1.999963	23.000029	11.325051
604	68	1	-0.180000	13.986417	9.969206	9.480583
605	68	5	0.145000	14.634138	8.591716	9.550196
606	68	3	-0.683000	16.016647	8.691911	9.343273