
atom_style full
boundary p p p
units real
bond_style harmonic
angle_style harmonic
dihedral_style opls
improper_style harmonic
pair_style lj/cut/coul/long 11.0 11.0
pair_modify mix arithmetic
special_bonds lj/coul 0.0 0.0 0.5
kspace_style pppm 0.0001

# ----------------- Atom Definition Section -----------------

read_data "ethanol_density_0.789.data"
Reading data file ...
  orthogonal box = (0 0 0) to (25 25 25)
  2 by 2 by 3 MPI processor grid
  reading atoms ...
  1449 atoms
  scanning bonds ...
  4 = max bonds/atom
  scanning angles ...
  6 = max angles/atom
  scanning dihedrals ...
  6 = max dihedrals/atom
  reading bonds ...
  1288 bonds
  reading angles ...
  2093 angles
  reading dihedrals ...
  1932 dihedrals
Finding 1-2 1-3 1-4 neighbors ...
  special bond factors lj:    0        0        0.5     
  special bond factors coul:  0        0        0.5     
     4 = max # of 1-2 neighbors
     4 = max # of 1-3 neighbors
     7 = max # of 1-4 neighbors
     8 = max # of special neighbors
  special bonds CPU = 0.001 seconds
  read_data CPU = 0.023 seconds

# ----------------- Settings Section -----------------

neighbor 3.0 bin
neigh_modify every 2 delay 0 check yes one 3000




# ----------------- Run Section -----------------

thermo         1000
thermo_style    custom step time etotal pe ke density temp press vol lx enthalpy

reset_timestep 0

#  -- minimize --
minimize 1.0e-6 1.0e-8 10000 100000
WARNING: Using 'neigh_modify every 1 delay 0 check yes' setting during minimization (src/lammps-23Jun2022/src/min.cpp:187)
PPPM initialization ...
  using 12-bit tables for long-range coulomb (src/lammps-23Jun2022/src/kspace.cpp:342)
  G vector (1/distance) = 0.2185021
  grid = 9 9 9
  stencil order = 5
  estimated absolute RMS force accuracy = 0.021156014
  estimated relative force accuracy = 6.3710707e-05
  using double precision KISS FFT
  3d grid and FFT values/proc = 1210 81
Generated 10 of 10 mixed pair_coeff terms from arithmetic mixing rule
Neighbor list info ...
  update every 1 steps, delay 0 steps, check yes
  max neighbors/atom: 3000, page size: 100000
  master list distance cutoff = 14
  ghost atom cutoff = 14
  binsize = 7, bins = 4 4 4
  1 neighbor lists, perpetual/occasional/extra = 1 0 0
  (1) pair lj/cut/coul/long, perpetual
      attributes: half, newton on
      pair build: half/bin/newton
      stencil: half/bin/3d
      bin: standard
Per MPI rank memory allocation (min/avg/max) = 12.03 | 12.05 | 12.06 Mbytes
   Step          Time          TotEng         PotEng         KinEng        Density          Temp          Press          Volume           Lx          Enthalpy   
         0   0              6160.9964      6160.9964      0              0.78824387     0              97924.373      15625          25             28475.474    
      1000   1000          -1643.2878     -1643.2878      0              0.78824387     0             -2016.1505      15625          25            -2102.7173    
      1147   1147          -1651.9487     -1651.9487      0              0.78824387     0             -1850.0221      15625          25            -2073.5217    
Loop time of 3.78183 on 12 procs for 1147 steps with 1449 atoms

99.2% CPU use with 12 MPI tasks x 1 OpenMP threads

Minimization stats:
  Stopping criterion = energy tolerance
  Energy initial, next-to-last, final = 
       6160.9963760511  -1651.94753183076   -1651.9486586357
  Force two-norm initial, final = 5083.7201 8.0252202
  Force max component initial, final = 1096.6167 2.6859473
  Final line search alpha, max atom move = 0.0095102816 0.025544115
  Iterations, force evaluations = 1147 2323

MPI task timing breakdown:
Section |  min time  |  avg time  |  max time  |%varavg| %total
---------------------------------------------------------------
Pair    | 1.7352     | 2.3506     | 2.8339     |  16.0 | 62.15
Bond    | 0.066094   | 0.080537   | 0.091568   |   2.5 |  2.13
Kspace  | 0.33286    | 0.83192    | 1.4651     |  27.5 | 22.00
Neigh   | 0.02858    | 0.028754   | 0.028912   |   0.1 |  0.76
Comm    | 0.42386    | 0.4361     | 0.44305    |   0.7 | 11.53
Output  | 3.1719e-05 | 3.6379e-05 | 8.588e-05  |   0.0 |  0.00
Modify  | 0          | 0          | 0          |   0.0 |  0.00
Other   |            | 0.05393    |            |       |  1.43

Nlocal:         120.75 ave         136 max          98 min
Histogram: 1 1 0 0 0 4 1 2 2 1
Nghost:        5261.25 ave        5542 max        4968 min
Histogram: 1 1 0 2 3 0 2 2 0 1
Neighs:        64431.2 ave       75203 max       46559 min
Histogram: 1 0 0 0 2 3 1 2 2 1

Total # of neighbors = 773174
Ave neighs/atom = 533.59144
Ave special neighs/atom = 7.3333333
Neighbor list builds = 17
Dangerous builds = 0
write_data ethanol_solv_min.data
System init for write_data ...
PPPM initialization ...
  using 12-bit tables for long-range coulomb (src/lammps-23Jun2022/src/kspace.cpp:342)
  G vector (1/distance) = 0.2185021
  grid = 9 9 9
  stencil order = 5
  estimated absolute RMS force accuracy = 0.021156014
  estimated relative force accuracy = 6.3710707e-05
  using double precision KISS FFT
  3d grid and FFT values/proc = 1210 81
Generated 10 of 10 mixed pair_coeff terms from arithmetic mixing rule


## Equil NPT ##

fix      NPT  all npt temp 298 298 100 iso 1 1 1000
dump 1 all dcd 1000 etho_npt.dcd

run 500000
PPPM initialization ...
  using 12-bit tables for long-range coulomb (src/lammps-23Jun2022/src/kspace.cpp:342)
  G vector (1/distance) = 0.2185021
  grid = 9 9 9
  stencil order = 5
  estimated absolute RMS force accuracy = 0.021156014
  estimated relative force accuracy = 6.3710707e-05
  using double precision KISS FFT
  3d grid and FFT values/proc = 1210 81
Generated 10 of 10 mixed pair_coeff terms from arithmetic mixing rule
Per MPI rank memory allocation (min/avg/max) = 10.94 | 10.96 | 10.97 Mbytes
   Step          Time          TotEng         PotEng         KinEng        Density          Temp          Press          Volume           Lx          Enthalpy   
      1147   0             -1651.9487     -1651.9487      0              0.78824387     0             -1850.0221      15625          25            -2073.5217    
      2000   853           -1503.2976     -1625.012       121.71441      0.87793565     28.199353      729.72089      14028.717      24.11789      -1354.0008    
      3000   1853           984.47463     -401.29946      1385.7741      0.68264917     321.06249      3134.4897      18041.933      26.227749      1809.2312    
      4000   2853           1293.1175      28.284718      1264.8328      0.53158192     293.04226      1079.8302      23169.167      28.508223      1657.9906    
      5000   3853           1523.5118      206.86786      1316.6439      0.46938153     305.04609      639.07776      26239.444      29.715626      1768.0711    
      6000   4853           1602.2396      337.64446      1264.5952      0.42756589     292.9872      -65.892458      28805.643      30.654379      1574.5581    
      7000   5853           1633.8032      336.6185       1297.1847      0.40530632     300.53769     -768.10904      30387.66       31.205591      1293.3981    
      8000   6853           1546.266       235.64103      1310.625       0.38976703     303.6516       551.92931      31599.159      31.614902      1800.6178    
      9000   7853           1532.5255      269.6126       1262.9129      0.38735715     292.59745      591.87643      31795.748      31.680329      1806.9836    
     10000   8853           1578.0594      297.85851      1280.2009      0.38457268     296.60282      39.317382      32025.963      31.756605      1596.4232    
     11000   9853           1668.7579      337.75344      1331.0045      0.37250124     308.37321      72.595233      33063.811      32.096004      1703.7634    
     12000   10853          1562.1788      245.88262      1316.2962      0.37357831     304.96553     -434.7852       32968.484      32.065129      1353.1291    
     13000   11853          1504.299       218.9723       1285.3267      0.39114624     297.79038     -660.60891      31487.739      31.5777        1200.9366    
     14000   12853          1446.8518      148.46814      1298.3836      0.38961472     300.81547      12.117396      31611.512      31.619021      1452.4382    
     15000   13853          1378.6678      120.20096      1258.4669      0.41026966     291.56737      420.3139       30020.038      31.079241      1562.6861    
     16000   14853          1323.9517      42.638246      1281.3135      0.44047186     296.86059     -184.47305      27961.628      30.352012      1248.7252    
     17000   15853          1349.1969      56.54457       1292.6524      0.45906603     299.48762      646.68096      26829.061      29.936555      1602.2266    
     18000   16853          1358.5267      64.198304      1294.3284      0.46949843     299.87594      379.88892      26232.911      29.713159      1503.8647    
     19000   17853          1237.8514     -42.102538      1279.954       0.50088817     296.54561     -333.75949      24588.942      29.079032      1118.1638    
     20000   18853          1268.5122     -31.608797      1300.121       0.53572231     301.218        725.6513       22990.102      28.43459       1511.8137    
     21000   19853          1228.3102     -77.900186      1306.2104      0.56435947     302.6288       1140.9867      21823.52       27.945267      1591.4562    
     22000   20853          1207.5325     -75.842747      1283.3753      0.57189387     297.33827     -1379.1023      21536.007      27.822003      774.38329    
     23000   21853          1241.7107     -30.068702      1271.7794      0.58861616     294.65168     -510.88409      20924.18       27.555998      1085.8105    
     24000   22853          1135.4463     -121.76706      1257.2134      0.60420887     291.27696     -1359.634       20384.193      27.316885      731.25086    
     25000   23853          1093.2703     -174.79313      1268.0634      0.64076283     293.79075      733.16809      19221.325      26.787228      1298.7944    
     26000   24853          1123.9371     -164.62983      1288.5669      0.66896828     298.54109     -230.30329      18410.904      26.405336      1062.0997    
     27000   25853          1081.8985     -237.14566      1319.0442      0.7039873      305.6022      -517.96254      17495.075      25.960035      949.74153    
     28000   26853          1003.6358     -274.60407      1278.2399      0.70668725     296.14847     -65.107044      17428.234      25.926932      987.08736    
     29000   27853          1035.8231     -232.866        1268.6891      0.71584723     293.9357       847.31134      17205.222      25.81587       1248.4309    
     30000   28853          1065.7024     -208.41925      1274.1216      0.72423092     295.19434      954.74283      17006.054      25.715868      1302.4937    
     31000   29853          972.49574     -298.01928      1270.515       0.73459821     294.35874     -1403.9108      16766.05       25.59432       629.21759    
     32000   30853          1033.1136     -259.01446      1292.1281      0.72943147     299.36616      73.641202      16884.808      25.654608      1051.2476    
     33000   31853          1057.1711     -245.5607       1302.7318      0.74659078     301.82286     -1129.9941      16496.735      25.456538      785.30809    
     34000   32853          1077.5563     -213.16534      1290.7216      0.73004048     299.0403       733.0646       16870.723      25.647472      1257.9211    
     35000   33853          974.40483     -323.95026      1298.3551      0.76053943     300.80886      1030.418       16194.178      25.299948      1217.7643    
     36000   34853          954.3135      -314.18001      1268.4935      0.74082772     293.89039     -410.31889      16625.067      25.522378      854.82777    
     37000   35853          971.83903     -326.60574      1298.4448      0.74168519     300.82964      1611.5739      16605.847      25.512539      1362.1288    
     38000   36853          982.09615     -299.85267      1281.9488      0.74739973     297.00778      897.97924      16478.88       25.44735       1197.9053    
     39000   37853          975.00491     -310.96979      1285.9747      0.74418141     297.94051     -889.68698      16550.145      25.483981      760.26393    
     40000   38853          964.52961     -270.73196      1235.2616      0.76062782     286.19106      189.31391      16192.296      25.298968      1009.2357    
     41000   39853          940.66651     -307.85218      1248.5187      0.75872415     289.26253      1647.6534      16232.923      25.320109      1330.7328    
     42000   40853          959.62526     -309.10062      1268.7259      0.76246934     293.94423      2571.698       16153.188      25.278584      1565.4599    
     43000   41853          1048.1501     -275.6024       1323.7525      0.76103752     306.69304     -774.41745      16183.579      25.294427      865.37139    
     44000   42853          929.22075     -317.12119      1246.3419      0.7555954      288.75821     -448.45438      16300.14       25.355009      822.61381    
     45000   43853          982.31749     -288.29151      1270.609       0.75711774     294.38052      84.216129      16267.365      25.338004      1002.2972    
     46000   44853          1007.641      -304.34175      1311.9827      0.73877056     303.96618      1316.2141      16671.361      25.546046      1327.6583    
     47000   45853          931.7286      -350.93168      1282.6603      0.75246617     297.17261      1098.6774      16367.926      25.390108      1193.9932    
     48000   46853          968.59184     -322.32522      1290.9171      0.75715196     299.08558     -664.39358      16266.63       25.337622      810.97635    
     49000   47853          984.62468     -318.55558      1303.1803      0.74616061     301.92678     -450.49134      16506.246      25.461429      876.17941    
     50000   48853          934.30469     -323.18759      1257.4923      0.75846897     291.34158     -1192.6966      16238.384      25.322948      651.85007    
     51000   49853          851.63174     -426.40558      1278.0373      0.76989852     296.10154     -1329.6273      15997.317      25.197012      541.42376    
     52000   50853          998.73124     -299.55098      1298.2822      0.74744803     300.79198      706.47023      16477.815      25.446802      1168.5045    
     53000   51853          944.1464      -354.19821      1298.3446      0.76839643     300.80643      2327.8461      16028.589      25.21342       1488.3049    
     54000   52853          1059.5799     -275.47261      1335.0525      0.74391618     309.31108      839.94495      16556.046      25.487009      1262.3871    
     55000   53853          890.28117     -393.32019      1283.6014      0.7674669      297.39065      467.54641      16048.002      25.223595      999.70744    
     56000   54853          977.74322     -316.44947      1294.1927      0.74777755     299.84449      892.5791       16470.554      25.443064      1192.1462    
     57000   55853          963.88437     -325.60477      1289.4891      0.7525447      298.75475     -987.06365      16366.218      25.389225      728.28758    
     58000   56853          941.46527     -346.43316      1287.8984      0.76183802     298.38621      362.3518       16166.574      25.285565      1026.898     
     59000   57853          959.49986     -298.93047      1258.4303      0.76457852     291.55891     -262.90396      16108.627      25.255318      897.73641    
     60000   58853          985.50616     -347.31816      1332.8243      0.74562337     308.79485     -105.40334      16518.139      25.467543      960.11448    
     61000   59853          996.25363     -332.26807      1328.5217      0.75725144     307.798        1067.7346      16264.493      25.336513      1249.5213    
     62000   60853          909.5835      -368.3622       1277.9457      0.76153567     296.08032      1101.2976      16172.992      25.288911      1169.3427    
     63000   61853          1017.4734     -284.55211      1302.0255      0.74335969     301.65924      1377.8195      16568.44       25.493368      1350.401     
     64000   62853          971.10851     -341.83547      1312.944       0.75587004     304.18888      2143.4238      16294.217      25.351938      1480.4598    
     65000   63853          951.27817     -341.54184      1292.82        0.74657773     299.52647      1899.8447      16497.024      25.456686      1408.3659    
     66000   64853          956.845       -352.04233      1308.8873      0.77505857     303.24902      478.63097      15890.813      25.14097       1067.7683    
     67000   65853          1017.1703     -263.90415      1281.0745      0.74629412     296.80521     -95.981277      16503.293      25.45991       994.0692     
     68000   66853          1034.9001     -293.46663      1328.3667      0.78493239     307.76208     -480.62018      15690.919      25.035107      924.91689    
     69000   67853          987.59223     -295.90025      1283.4925      0.76090544     297.36542     -1231.3785      16186.388      25.295891      696.91073    
     70000   68853          917.14081     -343.41028      1260.5511      0.77307922     292.05025     -860.7723       15931.499      25.162409      717.14504    
     71000   69853          979.43037     -318.94663      1298.377       0.76695025     300.81393      478.91704      16058.813      25.229258      1091.5934    
     72000   70853          992.03275     -323.25614      1315.2889      0.7666018      304.73216      183.33091      16066.112      25.23308       1034.9886    
     73000   71853          956.07956     -318.5328       1274.6124      0.77296385     295.30803      978.75428      15933.877      25.16366       1183.5217    
     74000   72853          889.05741     -369.84698      1258.9044      0.77338223     291.66874     -1127.9436      15925.257      25.159122      627.08853    
     75000   73853          966.16134     -299.66195      1265.8233      0.77448478     293.27174     -1025.2858      15902.586      25.147178      728.37408    
     76000   74853          942.92452     -381.91934      1324.8439      0.78347721     306.9459       565.36513      15720.062      25.050597      1072.5407    
     77000   75853          860.89361     -386.31481      1247.2084      0.79080205     288.95896      1840.1278      15574.455      24.973013      1278.8555    
     78000   76853          947.42468     -364.14095      1311.5656      0.77557833     303.86954      1115.4138      15880.163      25.135353      1205.7499    
     79000   77853          878.09626     -369.21548      1247.3117      0.78572963     288.9829       2219.2886      15674.998      25.026637      1385.434     
     80000   78853          947.32623     -388.85483      1336.1811      0.79915038     309.57255     -114.52583      15411.756      24.885748      921.58487    
     81000   79853          917.62374     -387.01388      1304.6376      0.77600223     302.26442      901.05384      15871.489      25.130775      1126.1901    
     82000   80853          933.54806     -356.11002      1289.6581      0.77548184     298.79389      1974.7549      15882.139      25.136395      1390.9501    
     83000   81853          910.00389     -372.17652      1282.1804      0.78051639     297.06143      1055.9468      15779.695      25.082233      1153.0096    
     84000   82853          928.70224     -342.30908      1271.0113      0.78304708     294.47373     -1105.4854      15728.697      25.055183      675.11836    
     85000   83853          917.34264     -310.1785       1227.5211      0.77208872     284.39772     -1532.4814      15951.937      25.173164      560.82213    
     86000   84853          975.40316     -335.96698      1311.3701      0.78801833     303.82424      592.41619      15629.472      25.002385      1110.4384    
     87000   85853          880.00351     -355.74004      1235.7435      0.77353046     286.30273      1560.6408      15922.205      25.157515      1242.3984    
     88000   86853          925.93912     -382.15766      1308.0968      0.78955234     303.06586      297.43704      15599.106      24.986182      993.60514    
     89000   87853          938.4893      -317.37014      1255.8594      0.75204074     290.96327      1213.1756      16377.185      25.394895      1228.2495    
     90000   88853          954.66974     -364.05987      1318.7296      0.76779616     305.52932     -1477.9407      16041.12       25.219989      608.91543    
     91000   89853          920.52271     -315.90775      1236.4305      0.76140909     286.46188     -348.95625      16175.681      25.290312      838.20194    
     92000   90853          1001.6709     -327.03044      1328.7014      0.75299372     307.83962     -392.37441      16356.458      25.384177      908.07308    
     93000   91853          1001.7174     -316.57169      1318.2891      0.76304316     305.42726      2275.8581      16141.04       25.272246      1537.4556    
     94000   92853          980.77307     -338.75227      1319.5253      0.75818838     305.71368      239.55413      16244.394      25.326072      1037.5253    
     95000   93853          931.0789      -334.43457      1265.5135      0.75245652     293.19996      369.11719      16368.136      25.390217      1019.1918    
     96000   94853          938.34546     -356.15637      1294.5018      0.76876845     299.91612      2479.2364      16020.832      25.209353      1517.6126    
     97000   95853          1003.8863     -274.10902      1277.9954      0.75309486     296.09182      3050.5387      16354.262      25.383041      1731.4707    
     98000   96853          922.46113     -402.4707       1324.9318      0.78492865     306.96628      2033.7573      15690.994      25.035147      1387.8601    
     99000   97853          943.03317     -352.8309       1295.8641      0.76972337     300.23173     -279.14447      16000.957      25.198923      877.8927     
    100000   98853          869.05799     -384.00087      1253.0589      0.79275745     290.31442      832.189        15536.039      24.952464      1057.613     
    101000   99853          978.66361     -320.68966      1299.3533      0.76471137     301.04012     -905.638        16105.829      25.253856      765.94103    
    102000   100853         999.35622     -313.59144      1312.9477      0.75401836     304.18973      186.40277      16334.232      25.372674      1043.7607    
    103000   101853         877.23282     -421.50767      1298.7405      0.78917463     300.89815      1382.4132      15606.572      24.990168      1191.8781    
    104000   102853         941.85328     -327.26087      1269.1141      0.7799291      294.03418      2304.4892      15791.577      25.088527      1472.5863    
    105000   103853         937.85206     -364.71522      1302.5673      0.78089158     301.78476      2249.746       15772.113      25.078216      1455.3389    
    106000   104853         887.70689     -401.75049      1289.4574      0.77001419     298.7474       1894.8638      15994.914      25.195751      1329.7207    
    107000   105853         930.14454     -381.47687      1311.6214      0.77390714     303.88246     -1912.3316      15914.455      25.153433      486.30002    
    108000   106853         932.62684     -373.53749      1306.1643      0.77328483     302.61814      3035.5654      15927.262      25.160178      1637.7364    
    109000   107853         975.86734     -308.49351      1284.3608      0.7577592      297.56661      501.69668      16253.594      25.330852      1094.7905    
    110000   108853         986.38946     -306.09707      1292.4865      0.76620452     299.4492      -1814.633       16074.442      25.23744       560.98639    
    111000   109853         928.3183      -352.64409      1280.9624      0.76087492     296.77924     -1767.3531      16187.037      25.296229      511.0969     
    112000   110853         958.00416     -364.14988      1322.154       0.75530247     306.32271     -1474.8307      16306.461      25.358287      607.27024    
    113000   111853         913.24013     -365.03904      1278.2792      0.76483174     296.15758      964.88095      16103.294      25.252531      1139.8424    
    114000   112853         874.83532     -375.68274      1250.5181      0.78516809     289.72576     -1446.3612      15686.209      25.032602      543.95523    
    115000   113853         1005.5133     -299.89243      1305.4057      0.78389479     302.44237     -461.30418      15711.688      25.046148      899.81055    
    116000   114853         939.47131     -353.39124      1292.8625      0.76907398     299.53632     -1173.8872      16014.468      25.206014      665.30458    
    117000   115853         881.37376     -354.67104      1236.0448      0.78012597     286.37253      1114.4333      15787.592      25.086417      1137.9674    
    118000   116853         952.98926     -351.50773      1304.497       0.77955673     302.23184     -114.42078      15799.12       25.092521      926.62511    
    119000   117853         1019.6414     -305.25834      1324.8998      0.74812421     306.95885      864.52882      16462.922      25.439133      1227.2103    
    120000   118853         869.39767     -386.79803      1256.1957      0.78353006     291.04118      247.86859      15719.002      25.050034      926.22043    
    121000   119853         869.64404     -401.06478      1270.7088      0.77313929     294.40364     -1574.3054      15930.261      25.161757      503.89115    
    122000   120853         967.51305     -322.8301       1290.3432      0.77983754     298.95262     -752.08035      15793.431      25.089509      794.28564    
    123000   121853         905.84681     -361.11275      1266.9596      0.78603444     293.535        682.83761      15668.92       25.023402      1061.8855    
    124000   122853         908.9465      -386.28468      1295.2312      0.77859044     300.08509     -607.21269      15818.728      25.102898      768.86258    
    125000   123853         893.08131     -388.48691      1281.5682      0.77696562     296.9196       132.64755      15851.809      25.120384      923.74709    
    126000   124853         960.24355     -322.55119      1282.7947      0.77766438     297.20377      843.77082      15837.565      25.112858      1155.1332    
    127000   125853         890.32735     -354.61644      1244.9438      0.80436503     288.43428      703.80397      15311.842      24.831854      1047.4921    
    128000   126853         910.48003     -387.27403      1297.7541      0.79108926     300.66961      718.29691      15568.8        24.969991      1073.5729    
    129000   127853         934.58258     -363.77709      1298.3597      0.76201348     300.80992     -1166.6321      16162.851      25.283624      659.58568    
    130000   128853         874.3003      -441.60225      1315.9025      0.78507357     304.87433      1506.9105      15688.097      25.033607      1219.0736    
    131000   129853         854.23959     -373.74454      1227.9841      0.78006092     284.50499     -476.45353      15788.909      25.087114      744.529      
    132000   130853         948.47467     -353.32406      1301.7987      0.76492685     301.60669     -1447.7107      16101.292      25.251484      608.52205    
    133000   131853         945.80965     -373.12049      1318.9301      0.758722       305.57578     -826.26978      16232.969      25.320133      750.19755    
    134000   132853         845.22849     -402.81253      1248.041       0.76347233     289.15186      455.80077      16131.967      25.26751       952.46392    
    135000   133853         881.64967     -390.61446      1272.2641      0.78612863     294.76398      506.11771      15667.042      25.022402      997.29136    
    136000   134853         930.66379     -336.90689      1267.5707      0.77522922     293.67659      1042.6316      15887.315      25.139125      1172.2417    
    137000   135853         1010.9765     -287.76899      1298.7455      0.77797341     300.8993      -1010.0254      15831.274      25.109532      777.77888    
    138000   136853         994.78357     -294.01285      1288.7964      0.76370363     298.59426     -432.37468      16127.081      25.264959      893.09037    
    139000   137853         895.45764     -337.97414      1233.4318      0.77694257     285.76713     -1959.1301      15852.279      25.120632      442.52787    
    140000   138853         948.93386     -318.79246      1267.7263      0.77135305     293.71265     -274.12765      15967.151      25.181164      885.09926    
    141000   139853         960.02278     -340.35255      1300.3753      0.75548553     301.27692     -1444.9681      16302.51       25.356238      616.47382    
    142000   140853         951.60561     -307.12618      1258.7318      0.77203922     291.62875     -297.96622      15952.96       25.173702      882.28152    
    143000   141853         957.46831     -289.33612      1246.8044      0.74747672     288.86536      862.75376      16477.183      25.446476      1164.7905    
    144000   142853         920.99037     -386.24899      1307.2394      0.77030732     302.86721      1955.7054      15988.827      25.192554      1377.023     
    145000   143853         941.09294     -330.23175      1271.3247      0.75383989     294.54633     -879.25194      16338.099      25.374676      731.5897     
    146000   144853         978.16955     -347.6115       1325.781       0.77588609     307.16303     -1726.6921      15873.864      25.132029      578.43337    
    147000   145853         996.45646     -295.20414      1291.6606      0.76165828     299.25785     -477.11306      16170.389      25.287554      883.93959    
    148000   146853         954.93321     -293.35725      1248.2905      0.77519086     289.20966     -1056.5318      15888.101      25.13954       710.12247    
    149000   147853         886.10484     -388.19427      1274.2991      0.79495999     295.23546     -946.4685       15492.994      24.929398      672.25083    
    150000   148853         916.14772     -402.29429      1318.442       0.79870231     305.46269     -945.74361      15420.402      24.890401      703.45874    
    151000   149853         929.38966     -327.25074      1256.6404      0.77726223     291.14421     -1173.1994      15845.76       25.117188      658.27014    
    152000   150853         855.88402     -361.6868       1217.5708      0.7782704      282.09239      983.05493      15825.233      25.106338      1082.768     
    153000   151853         958.60731     -343.93622      1302.5435      0.7870804      301.77925     -3646.0289      15648.097      25.012312      126.54178    
    154000   152853         886.94282     -362.20901      1249.1518      0.78788434     289.40922     -52.521797      15632.13       25.003802      874.96898    
    155000   153853         941.03687     -331.08574      1272.1226      0.76434755     294.7312      -324.87386      16113.495      25.257862      864.69191    
    156000   154853         1008.771      -303.45489      1312.2259      0.7609774      304.02252     -1785.0288      16184.857      25.295094      587.43367    
    157000   155853         1017.2981     -281.74966      1299.0477      0.77514849     300.96933     -237.5255       15888.969      25.139998      962.25762    
    158000   156853         989.59459     -310.03156      1299.6261      0.7463814      301.10334     -918.06703      16501.363      25.458918      768.65675    
    159000   157853         867.21724     -404.36474      1271.582       0.75468821     294.60594      1788.2587      16319.734      25.365165      1292.8346    
    160000   158853         903.32921     -380.48858      1283.8178      0.78695245     297.44079      571.7148       15650.641      25.013668      1033.8223    
    161000   159853         1002.038      -282.68784      1284.7259      0.77259528     297.65118     -617.1498       15941.478      25.167661      858.55683    
    162000   160853         933.8743      -318.64879      1252.5231      0.77200431     290.19029      71.545542      15953.681      25.174082      950.52067    
    163000   161853         890.37123     -346.56415      1236.9354      0.76599196     286.57886      498.29894      16078.903      25.239775      1007.2195    
    164000   162853         992.60611     -324.38007      1316.9862      0.77107617     305.12539     -429.5192       15972.884      25.184178      892.55041    
    165000   163853         917.75779     -376.69411      1294.4519      0.77907353     299.90455      1453.34        15808.919      25.097708      1252.8353    
    166000   164853         919.80233     -399.30329      1319.1056      0.77053568     305.61644     -811.79338      15984.088      25.190065      730.56393    
    167000   165853         993.38436     -367.72112      1361.1055      0.78067897     315.34716      2369.4165      15776.409      25.080492      1538.5462    
    168000   166853         888.75705     -375.07283      1263.8299      0.79789137     292.8099       297.61676      15436.074      24.898831      955.75633    
    169000   167853         964.56669     -300.58354      1265.1502      0.77419592     293.1158      -348.65033      15908.519      25.150305      883.67652    
    170000   168853         981.20645     -309.56492      1290.7714      0.77285807     299.05183     -1751.2666      15936.057      25.164808      574.19274    
    171000   169853         910.81942     -375.66677      1286.4862      0.79154838     298.05902      1001.3212      15559.77       24.965162      1138.0425    
    172000   170853         984.33373     -331.29189      1315.6256      0.77017238     304.81017      526.58554      15991.628      25.194025      1107.1448    
    173000   171853         941.75574     -343.56172      1285.3175      0.76289419     297.78824     -1927.3405      16144.192      25.273891      487.97018    
    174000   172853         926.13446     -321.18052      1247.315       0.77934591     288.98365     -3208.846       15803.394      25.094784      186.57152    
    175000   173853         946.29224     -361.18515      1307.4774      0.75964362     302.92235     -1068.5092      16213.274      25.309889      693.63899    
    176000   174853         960.39756     -323.21504      1283.6126      0.78135681     297.39325      1027.1679      15762.722      25.073237      1196.5261    
    177000   175853         952.75966     -334.21276      1286.9724      0.74796081     298.17167      1330.8516      16466.518      25.440985      1272.3601    
    178000   176853         924.02484     -349.30142      1273.3263      0.77078671     295.01006      2133.482       15978.883      25.18733       1421.2021    
    179000   177853         922.15768     -332.72687      1254.8846      0.76314276     290.7374       2600.5422      16138.934      25.271147      1534.2468    
    180000   178853         954.44375     -308.72313      1263.1669      0.76126684     292.65629     -383.37357      16178.703      25.291887      863.98684    
    181000   179853         1067.4901     -234.95968      1302.4497      0.75693619     301.75752      2655.3918      16271.267      25.34003       1697.6138    
    182000   180853         1007.182      -335.27217      1342.4541      0.73878817     311.02593     -1448.2878      16670.963      25.545843      655.06135    
    183000   181853         1019.8832     -287.19657      1307.0798      0.72953079     302.83023     -868.46986      16882.509      25.653443      806.0537     
    184000   182853         978.35279     -273.7214       1252.0742      0.75968926     290.08629     -2170.9697      16212.3        25.309382      465.04921    
    185000   183853         979.93258     -262.31267      1242.2452      0.76480734     287.80907      2524.4231      16103.808      25.252799      1572.8123    
    186000   184853         1005.8779     -297.31518      1303.1931      0.75200207     301.92974     -47.900917      16378.027      25.39533       994.43642    
    187000   185853         1031.8168     -266.48515      1298.302       0.74469908     300.79655      617.96343      16538.641      25.478074      1180.869     
    188000   186853         1007.9943     -311.27571      1319.27        0.73918918     305.65452      980.97049      16661.919      25.541222      1246.3672    
    189000   187853         962.97609     -294.41616      1257.3923      0.74796973     291.3184      -1011.184       16466.322      25.440884      720.14589    
    190000   188853         948.08211     -319.39651      1267.4786      0.75392835     293.65526     -419.23404      16336.182      25.373683      848.20109    
    191000   189853         878.39307     -432.92035      1311.3134      0.76829007     303.8111      -237.7946       16030.808      25.214584      822.79839    
    192000   190853         980.24098     -306.7143       1286.9553      0.75502112     298.1677       717.13831      16312.538      25.361436      1150.8494    
    193000   191853         955.68401     -368.04588      1323.7299      0.76695501     306.68781      471.84635      16058.713      25.229206      1066.1904    
    194000   192853         936.90718     -359.27033      1296.1775      0.78041129     300.30435     -1517.8273      15781.82       25.083359      587.56155    
    195000   193853         920.5814      -339.32817      1259.9096      0.75775954     291.90162      358.46216      16253.587      25.330849      1005.5519    
    196000   194853         885.62612     -385.95579      1271.5819      0.77627021     294.60593      1955.7228      15866.01       25.127883      1338.1598    
    197000   195853         916.58566     -336.07524      1252.6609      0.78803728     290.22222     -269.63694      15629.096      25.002184      855.12615    
    198000   196853         959.92214     -321.43446      1281.3566      0.76683802     296.87057      170.03396      16061.163      25.230489      999.75014    
    199000   197853         958.25864     -293.05723      1251.3159      0.77690424     289.9106       1529.6705      15853.061      25.121046      1311.9194    
    200000   198853         950.75747     -301.50066      1252.2581      0.7807533      290.1289      -1533.9086      15774.907      25.079696      597.86518    
    201000   199853         872.78406     -426.79994      1299.584       0.78859216     301.09358      753.13355      15618.099      24.996319      1044.3283    
    202000   200853         996.13918     -309.96838      1306.1076      0.78500556     302.60499     -870.22831      15689.456      25.03433       797.01821    
    203000   201853         876.58107     -369.61964      1246.2007      0.78222239     288.72549      529.19391      15745.28       25.063985      998.09921    
    204000   202853         976.16366     -299.70006      1275.8637      0.77095288     295.59795     -958.85435      15975.439      25.18552       752.76461    
    205000   203853         951.34343     -280.08499      1231.4284      0.77239906     285.30298     -1179.183       15945.528      25.169792      677.12541    
    206000   204853         946.93787     -323.97102      1270.9089      0.77258305     294.45        -13.250017      15941.73       25.167794      943.85733    
    207000   205853         1033.4462     -283.1022       1316.5484      0.77555747     305.02397     -531.283        15880.59       25.135578      910.39993    
    208000   206853         1001.8774     -328.78791      1330.6653      0.75404526     308.29464     -955.34973      16333.649      25.372372      774.304      
    209000   207853         1000.9394     -266.39261      1267.332       0.76047863     293.62128     -1391.4398      16195.472      25.300622      672.28916    
    210000   208853         996.75267     -327.70601      1324.4587      0.76517535     306.85666      326.97619      16096.063      25.24875       1073.5086    
    211000   209853         946.14309     -336.23055      1282.3736      0.78262302     297.1062      -510.41699      15737.22       25.059708      828.99667    
    212000   210853         923.36082     -343.46335      1266.8242      0.75694634     293.50363      182.08411      16271.048      25.339916      966.56875    
    213000   211853         952.38112     -334.46484      1286.846       0.75714939     298.14237      708.76934      16266.685      25.337651      1120.5245    
    214000   212853         833.89123     -379.76655      1213.6578      0.77851121     281.1858       1094.0612      15820.338      25.103749      1086.3167    
    215000   213853         1004.4446     -293.03523      1297.4798      0.76298134     300.60607     -228.77556      16142.348      25.272929      950.58632    
    216000   214853         970.25327     -310.77275      1281.026       0.75785703     296.79398     -1281.4662      16251.496      25.329762      666.53118    
    217000   215853         985.88529     -314.51731      1300.4026      0.76363158     301.28324     -1956.659       16128.603      25.265753      525.64167    
    218000   216853         1006.3521     -283.31662      1289.6688      0.76424897     298.79637      1292.7743      16115.574      25.258948      1310.1917    
    219000   217853         918.89163     -379.91136      1298.803       0.77116334     300.91263      1524.7747      15971.079      25.183229      1274.0449    
    220000   218853         925.59848     -360.53064      1286.1291      0.76868231     297.97629      127.04286      16022.628      25.210294      955.28504    
    221000   219853         957.62677     -345.5598       1303.1866      0.78351812     301.92824     -582.84359      15719.241      25.050161      824.01045    
    222000   220853         917.47031     -347.08923      1264.5595      0.76368334     292.97895      578.88044      16127.51       25.265182      1053.6248    
    223000   221853         909.89847     -355.33192      1265.2304      0.77784678     293.13438     -451.08896      15833.852      25.110895      805.73279    
    224000   222853         1037.5934     -305.20643      1342.7998      0.76565658     311.10602     -262.15409      16085.946      25.243459      976.09284    
    225000   223853         873.42935     -371.06085      1244.4902      0.77487257     288.32919     -850.77131      15894.627      25.142982      676.21475    
    226000   224853         935.23289     -375.65928      1310.8922      0.76420283     303.71351      443.34267      16116.546      25.259456      1039.4376    
    227000   225853         942.44444     -350.70786      1293.1523      0.77692183     299.60345     -689.94029      15852.702      25.120856      782.93341    
    228000   226853         959.36295     -373.80197      1333.1649      0.76687897     308.87376     -828.49673      16060.305      25.23004       765.30989    
    229000   227853         861.63223     -424.94088      1286.5731      0.77329514     298.07916     -1052.6631      15927.05       25.160066      617.11997    
    230000   228853         981.31778     -327.80744      1309.1252      0.75437568     303.30413      1620.5586      16326.495      25.368667      1367.1812    
    231000   229853         948.28607     -339.11738      1287.4034      0.75961645     298.27153      707.94099      16213.854      25.310191      1115.6875    
    232000   230853         932.97547     -376.85395      1309.8294      0.78129595     303.46728      774.8401       15763.95       25.073888      1111.112     
    233000   231853         994.07619     -280.42729      1274.5035      0.75681027     295.28281     -65.553768      16273.974      25.341435      978.51771    
    234000   232853         974.48643     -297.40669      1271.8931      0.75958584     294.67803     -1716.9171      16214.508      25.310531      568.48367    
    235000   233853         918.94457     -361.35919      1280.3038      0.76965076     296.62664     -726.92379      16002.467      25.199716      749.29541    
    236000   234853         976.2215      -289.79584      1266.0173      0.75215741     293.3167      -201.40765      16374.645      25.393582      928.12386    
    237000   235853         913.56311     -344.84328      1258.4064      0.78354096     291.55336      451.1478       15718.783      25.049918      1016.9853    
    238000   236853         978.31258     -330.39936      1308.7119      0.76302083     303.20838      951.21574      16141.513      25.272493      1202.2358    
    239000   237853         871.19929     -396.72581      1267.9251      0.78277634     293.7587       245.05317      15734.137      25.058072      927.43072    
    240000   238853         961.92756     -322.42762      1284.3552      0.75699592     297.5653      -824.37119      16269.983      25.339363      766.31993    
    241000   239853         959.99993     -372.54548      1332.5454      0.75931313     308.73023     -2870.597       16220.331      25.313561      280.94043    
    242000   240853         963.09463     -329.38737      1292.482       0.77026025     299.44816      793.04481      15989.804      25.193067      1148.0286    
    243000   241853         953.73736     -286.641        1240.3784      0.74838156     287.37654     -1617.9505      16457.261      25.436217      565.4094     
    244000   242853         946.37102     -323.00701      1269.378       0.7641184      294.09532     -1629.6696      16118.327      25.260386      563.28576    
    245000   243853         899.12903     -372.95542      1272.0845      0.78048892     294.72236      36.043274      15780.25       25.082527      907.42398    
    246000   244853         957.57158     -332.17892      1289.7505      0.77114731     298.81531     -1617.5547      15971.411      25.183404      580.8        
    247000   245853         912.36981     -372.64829      1285.0181      0.76871762     297.71888     -1077.6801      16021.892      25.209908      660.55599    
    248000   246853         959.07663     -299.27582      1258.3524      0.76054843     291.54086      474.46385      16193.986      25.299848      1071.132     
    249000   247853         979.07871     -293.53402      1272.6127      0.74750867     294.84475     -1088.8027      16476.479      25.446114      717.44755    
    250000   248853         1011.8738     -280.7977       1292.6715      0.7576055      299.49205      1250.9902      16256.892      25.332565      1308.4712    
    251000   249853         857.07293     -384.84111      1241.914       0.76360112     287.73234     -605.66844      16129.246      25.266089      714.60244    
    252000   250853         973.63923     -301.34968      1274.9889      0.76308694     295.39527     -1509.5388      16140.114      25.271763      618.31341    
    253000   251853         881.82432     -382.8643       1264.6886      0.79567293     293.00886      44.80306       15479.112      24.92195       891.93847    
    254000   252853         977.96337     -316.25233      1294.2157      0.75677433     299.84982      778.17222      16274.747      25.341836      1162.6629    
    255000   253853         1015.8023     -323.99346      1339.7957      0.77591323     310.41002      2636.9114      15873.309      25.131736      1626.2365    
    256000   254853         911.39569     -372.47437      1283.8701      0.77182327     297.4529       1439.181       15957.423      25.17605       1246.3257    
    257000   255853         902.9947      -391.62064      1294.6153      0.76719714     299.94242     -619.35354      16053.645      25.226551      757.98796    
    258000   256853         1008.5215     -324.69654      1333.2181      0.77018449     308.88607     -2143.966       15991.377      25.193893      508.51043    
    259000   257853         950.30358     -342.46627      1292.7698      0.77244518     299.51484     -1189.8739      15944.576      25.169291      673.61591    
    260000   258853         881.61022     -347.54261      1229.1528      0.76160565     284.77576     -1440.236       16171.506      25.288136      541.93801    
    261000   259853         986.2578      -318.06615      1304.3239      0.77872579     302.19175     -1129.5724      15815.979      25.101443      725.71081    
    262000   260853         883.61196     -382.1523       1265.7643      0.78982507     293.25807     -654.71377      15593.719      24.983306      734.718      
    263000   261853         997.40634     -325.37261      1322.779       0.78121264     306.46749      119.45323      15765.631      25.074779      1024.8717    
    264000   262853         918.17338     -372.03012      1290.2035      0.76021399     298.92026     -203.28371      16201.11       25.303558      870.1422     
    265000   263853         924.05284     -367.88087      1291.9337      0.79459371     299.32112      762.96346      15500.136      24.933228      1096.5235    
    266000   264853         961.3863      -361.29082      1322.6771      0.77100646     306.4439      -174.85178      15974.329      25.184937      920.65122    
    267000   265853         944.8641      -313.11859      1257.9827      0.78054238     291.4552      -386.33993      15779.169      25.081955      855.9584     
    268000   266853         947.29571     -341.82431      1289.12        0.77601096     298.66924      925.19762      15871.31       25.130681      1161.4482    
    269000   267853         852.9911      -394.93278      1247.9239      0.77930742     289.12473      1325.1914      15804.175      25.095197      1158.4314    
    270000   268853         930.77496     -339.83794      1270.6129      0.79750284     294.38142     -768.43945      15443.594      24.902874      757.70013    
    271000   269853         991.10988     -281.53391      1272.6438      0.7589975      294.85194     -1872.4531      16227.076      25.317069      547.98398    
    272000   270853         915.32184     -362.55921      1277.8811      0.77400918     296.06534      227.17956      15912.357      25.152327      968.04236    
    273000   271853         975.18453     -335.06172      1310.2463      0.76002395     303.56386     -46.688809      16205.161      25.305667      964.1503     
    274000   272853         1002.5592     -266.59203      1269.1513      0.7647458      294.04278     -426.57934      16105.104      25.253477      902.3658     
    275000   273853         962.68798     -333.57557      1296.2636      0.77162462     300.32428     -200.4685       15961.531      25.17821       916.02241    
    276000   274853         1002.6547     -300.117        1302.7717      0.75856572     301.83211     -77.664142      16236.313      25.321872      984.26459    
    277000   275853         917.06851     -380.91141      1297.9799      0.7712382      300.72194     -1200.6464      15969.529      25.182414      637.43894    
    278000   276853         927.24719     -361.28412      1288.5313      0.77418008     298.53284     -73.929762      15908.845      25.150476      910.09443    
    279000   277853         919.36681     -354.95774      1274.3245      0.75889221     295.24135      772.11235      16229.328      25.31824       1102.1166    
    280000   278853         981.5533      -268.36639      1249.9197      0.76756988     289.58712      1595.2308      16045.849      25.222467      1354.8569    
    281000   279853         1007.074      -287.59406      1294.6681      0.77815564     299.95463      858.8604       15827.567      25.107572      1205.3237    
    282000   280853         843.57234     -377.73669      1221.309       0.7811296      282.95847     -283.35549      15767.307      25.075668      778.41475    
    283000   281853         932.03981     -327.92622      1259.966       0.79994696     291.91471      317.91229      15396.409      24.877485      1003.4241    
    284000   282853         948.10888     -331.58213      1279.691       0.77539158     296.48468     -364.26177      15883.988      25.137371      863.72703    
    285000   283853         964.15573     -354.0261       1318.1818      0.77214162     305.40241     -1007.1692      15950.844      25.172589      729.86129    
    286000   284853         1053.3451     -255.40721      1308.7523      0.7583353      303.21772     -1304.3063      16241.246      25.324436      744.40457    
    287000   285853         926.47349     -347.97688      1274.4504      0.77983109     295.2705      -1099.0718      15793.562      25.089578      673.32109    
    288000   286853         1001.7073     -352.84259      1354.5499      0.78792066     313.82833     -693.55271      15631.41       25.003418      843.59942    
    289000   287853         972.87236     -298.86017      1271.7325      0.76554161     294.64082     -648.50939      16088.362      25.244723      820.71113    
    290000   288853         931.41577     -349.41928      1280.8351      0.76680411     296.74974     -1566.1928      16061.873      25.230861      564.54145    
    291000   289853         845.8452      -369.04193      1214.8871      0.77225776     281.47062     -817.87752      15948.445      25.171327      655.61366    
    292000   290853         963.21939     -334.48826      1297.7076      0.76216181     300.65886     -318.0184       16159.706      25.281984      888.27112    
    293000   291853         937.64251     -369.43768      1307.0802      0.78369114     302.83033      2051.9902      15715.771      25.048318      1407.9554    
    294000   292853         988.4512      -307.12396      1295.5752      0.76513946     300.16479     -641.12467      16096.818      25.249145      837.94361    
    295000   293853         995.728       -338.56863      1334.2966      0.76854593     309.13596      1136.9505      16025.471      25.211785      1261.4505    
    296000   294853         1004.5525     -302.49606      1307.0486      0.77343295     302.82301      774.06728      15924.212      25.158572      1184.3206    
    297000   295853         958.51217     -347.9572       1306.4694      0.7603671      302.68881     -1253.2657      16197.848      25.301859      662.45447    
    298000   296853         915.6447      -356.43804      1272.0827      0.77807897     294.72196     -111.22035      15829.127      25.108397      889.9693     
    299000   297853         952.49668     -315.37379      1267.8705      0.76027951     293.74604     -678.92625      16199.714      25.302831      792.09614    
    300000   298853         869.21004     -392.55655      1261.7666      0.7717651      292.33187     -1015.1952      15958.626      25.176682      632.93332    
    301000   299853         979.87378     -304.84066      1284.7144      0.77738372     297.64853     -1574.2897      15843.283      25.11588       616.12148    
    302000   300853         993.8978      -306.90605      1300.8039      0.75804777     301.3762      -1379.3177      16247.407      25.327638      667.06605    
    303000   301853         970.49182     -345.95284      1316.4447      0.76792449     304.99993      1514.7553      16038.44       25.218584      1324.7994    
    304000   302853         916.59411     -325.01896      1241.6131      0.76599174     287.66261      1601.8683      16078.908      25.239777      1292.2232    
    305000   303853         956.70827     -308.04716      1264.7554      0.78306777     293.02434     -1329.4539      15728.282      25.054963      651.757      
    306000   304853         1000.2376     -254.47924      1254.7168      0.74231052     290.69854     -2429.695       16591.858      25.505372      412.31159    
    307000   305853         893.2811      -390.1042       1283.3853      0.7827713      297.34059      537.07573      15734.239      25.058125      1016.5227    
    308000   306853         986.60834     -301.95034      1288.5587      0.74589391     298.53918     -996.2424       16512.148      25.464463      746.70048    
    309000   307853         975.5472      -282.25452      1257.8017      0.75659216     291.41327     -1339.9539      16278.665      25.34387       657.43191    
    310000   308853         974.34697     -314.06624      1288.4132      0.78816442     298.50548      928.80922      15626.575      25.00084       1186.0203    
    311000   309853         950.76292     -331.08091      1281.8438      0.76001882     296.98345     -895.64405      16205.27       25.305724      739.08887    
    312000   310853         972.39042     -352.65478      1325.0452      0.78074141     306.99255      2000.008       15775.147      25.079823      1432.5209    
    313000   311853         933.83136     -313.54637      1247.3777      0.75319731     288.99819      1771.7154      16352.037      25.38189       1356.346     
    314000   312853         924.93343     -362.21137      1287.1448      0.77073311     298.21161      3547.8302      15979.994      25.187914      1751.7617    
    315000   313853         963.64309     -315.6302       1279.2733      0.74453904     296.3879      -24.754188      16542.196      25.4799        957.67112    
    316000   314853         919.99669     -384.77735      1304.774       0.76404863     302.29603      1030.5561      16119.799      25.261155      1162.2709    
    317000   315853         898.13187     -347.32028      1245.4522      0.75590738     288.55206     -1488.8802      16293.412      25.351521      544.34013    
    318000   316853         932.92921     -344.95215      1277.8814      0.76913453     296.06541      299.86062      16013.207      25.205352      1002.9575    
    319000   317853         1033.25       -310.24954      1343.4995      0.78694433     311.26813      371.30187      15650.803      25.013754      1118         
    320000   318853         883.66757     -391.39756      1275.0651      0.77371231     295.41293      661.08276      15918.463      25.155544      1037.1409    
    321000   319853         958.45601     -312.77332      1271.2293      0.76367553     294.52424      2410.1295      16127.675      25.265269      1525.332     
    322000   320853         946.49458     -342.72641      1289.221       0.76382024     298.69263      510.71088      16124.619      25.263673      1066.5939    
    323000   321853         900.20711     -370.55374      1270.7609      0.78169705     294.4157       2556.6485      15755.862      25.069599      1487.6817    
    324000   322853         921.63996     -346.13373      1267.7737      0.77094164     293.72362      773.97625      15975.672      25.185643      1101.9677    
    325000   323853         962.28676     -355.85535      1318.1421      0.78236906     305.39321     -137.2524       15742.328      25.062419      930.77557    
    326000   324853         953.95909     -330.78623      1284.7453      0.77756057     297.65569     -1299.4181      15839.68       25.113976      653.78637    
    327000   325853         850.168       -399.98476      1250.1528      0.77458097     289.64112     -2421.5947      15900.611      25.146136      288.61448    
    328000   326853         949.86998     -311.15704      1261.027       0.78462286     292.16052      1590.761       15697.109      25.038399      1314.0369    
    329000   327853         940.53286     -352.31938      1292.8522      0.78310754     299.53393     -328.32516      15727.483      25.054539      865.22518    
    330000   328853         1031.9029     -258.70669      1290.6096      0.76475627     299.01434     -1568.1984      16104.883      25.253361      663.57508    
    331000   329853         930.76594     -361.55375      1292.3197      0.77690586     299.41055      1261.7866      15853.028      25.121028      1222.4912    
    332000   330853         976.15263     -294.38538      1270.538       0.77897334     294.36407     -738.03032      15810.952      25.098784      805.97278    
    333000   331853         1008.4427     -284.84139      1293.2841      0.75479238     299.63399      735.00794      16317.481      25.363998      1183.3553    
    334000   332853         909.94058     -368.68144      1278.622       0.76710657     296.23701     -946.55486      16055.54       25.227544      688.30136    
    335000   333853         996.04464     -351.62479      1347.6694      0.77787239     312.23423     -919.54641      15833.33       25.110619      783.70953    
    336000   334853         865.94524     -345.21522      1211.1605      0.75995845     280.60721     -1814.5553      16206.558      25.306394      437.06417    
    337000   335853         927.02459     -345.12978      1272.1544      0.77067706     294.73856     -2314.8884      15981.156      25.188525      387.49638    
    338000   336853         1078.1168     -282.36345      1360.4802      0.76151068     315.2023      -449.0888       16173.523      25.289188      972.1883     
    339000   337853         908.69309     -358.12474      1266.8178      0.75750953     293.50216     -1634.5283      16258.951      25.333635      521.11353    
    340000   338853         981.33463     -267.88301      1249.2176      0.74671414     289.42447     -2097.6871      16494.01       25.455136      476.73974    
    341000   339853         942.90379     -398.20704      1341.1108      0.79300274     310.7147      -660.36326      15531.233      24.949891      793.32682    
    342000   340853         948.61245     -323.33526      1271.9477      0.76389073     294.69068     -2242.9377      16123.131      25.262896      421.20958    
    343000   341853         892.62562     -400.25875      1292.8844      0.77015445     299.54138      1365.8124      15992.001      25.194221      1211.1699    
    344000   342853         982.78138     -333.12212      1315.9035      0.76764474     304.87455     -639.83713      16044.284      25.221647      833.06625    
    345000   343853         980.10091     -340.25089      1320.3518      0.75619675     305.90515     -847.6152       16287.177      25.348286      778.76536    
    346000   344853         935.02573     -351.78253      1286.8083      0.75583626     298.13364     -1582.137       16294.945      25.352316      559.03869    
    347000   345853         890.66438     -386.44246      1277.1068      0.78359332     295.88597      1541.2869      15717.733      25.04936       1243.969     
    348000   346853         973.45605     -312.005        1285.461       0.76428295     297.82151      165.95203      16114.857      25.258573      1012.4579    
    349000   347853         898.89934     -378.34785      1277.2472      0.78681275     295.91848      1548.2938      15653.42       25.015148      1252.3579    
    350000   348853         959.36478     -343.12476      1302.4895      0.77522981     301.76674      1442.8879      15887.302      25.139119      1293.6819    
    351000   349853         976.17185     -347.02096      1323.1928      0.77723721     306.56337     -1040.5838      15846.27       25.117458      735.69128    
    352000   350853         962.99304     -368.42001      1331.413       0.77791086     308.46788     -2217.0938      15832.547      25.110205      451.06283    
    353000   351853         919.98947     -353.49452      1273.484       0.78072804     295.04661     -1345.6431      15775.417      25.079966      610.39969    
    354000   352853         964.48763     -327.96829      1292.4559      0.78839713     299.44211      970.85018      15621.963      24.99838       1185.6767    
    355000   353853         963.45815     -334.01468      1297.4728      0.7708119      300.60445      1808.342       15978.361      25.187056      1384.8525    
    356000   354853         983.67712     -308.23329      1291.9104      0.75060617     299.31573      1771.8205      16408.486      25.411063      1407.6754    
    357000   355853         946.32903     -328.38614      1274.7152      0.75673245     295.33185      1692.7646      16275.647      25.342304      1348.1298    
    358000   356853         940.27901     -347.26634      1287.5454      0.76796877     298.30441      658.34541      16037.515      25.2181        1094.2599    
    359000   357853         982.27093     -370.74867      1353.0196      0.78189582     313.47378      375.58747      15751.856      25.067474      1068.5526    
    360000   358853         940.20969     -357.71393      1297.9236      0.77758703     300.70889     -1777.6479      15839.141      25.113691      529.57725    
    361000   359853         963.87912     -305.98282      1269.8619      0.76315991     294.20744      490.0701       16138.571      25.270957      1079.2242    
    362000   360853         971.89391     -330.38723      1302.2811      0.77127159     301.71847      2167.4706      15968.837      25.182051      1476.6742    
    363000   361853         914.21737     -365.76421      1279.9816      0.78309104     296.552       -113.9262       15727.814      25.054714      888.08566    
    364000   362853         827.05647     -392.61802      1219.6745      0.785156       282.57978     -1281.5598      15686.45       25.032731      533.87302    
    365000   363853         965.88407     -327.24153      1293.1256      0.76079981     299.59726      832.459        16188.635      25.297062      1162.4232    
    366000   364853         943.4003      -387.0461       1330.4464      0.79495714     308.24392      2148.763       15493.05       24.929427      1428.9138    
    367000   365853         946.09835     -342.31338      1288.4117      0.78544771     298.50513     -829.33219      15680.624      25.029631      756.44183    
    368000   366853         942.40152     -335.44695      1277.8485      0.7668338      296.05779      2139.4769      16061.251      25.230535      1443.5459    
    369000   367853         898.84481     -393.58488      1292.4297      0.79014444     299.43603      1487.9849      15587.417      24.979939      1237.1032    
    370000   368853         927.94473     -324.2192       1252.1639      0.79255118     290.10708      1659.4684      15540.082      24.954628      1304.0403    
    371000   369853         928.10957     -354.66481      1282.7744      0.77726648     297.19905      335.96272      15845.673      25.117143      1005.7482    
    372000   370853         934.54588     -349.93117      1284.4771      0.79890421     297.59353     -792.74852      15416.505      24.888304      756.30914    
    373000   371853         1012.7699     -299.13412      1311.904       0.77495988     303.94793      1157.701       15892.836      25.142038      1281.1026    
    374000   372853         914.46853     -363.93245      1278.401       0.80048464     296.1858       822.22318      15386.067      24.871914      1098.9672    
    375000   373853         880.83433     -384.81445      1265.6488      0.78659484     293.23131      744.84872      15657.757      25.017458      1050.9223    
    376000   374853         912.88893     -356.18593      1269.0749      0.79478544     294.02508     -1894.9389      15496.397      24.931223      484.63455    
    377000   375853         877.70585     -410.63511      1288.341       0.79551499     298.48874     -601.90954      15482.185      24.923599      741.79961    
    378000   376853         954.3813      -307.41766      1261.799       0.78518928     292.33937     -48.636907      15685.785      25.032377      943.25507    
    379000   377853         841.81691     -400.68858      1242.5055      0.79061634     287.86937      366.36888      15578.113      24.974968      925.05255    
    380000   378853         864.79789     -427.59833      1292.3962      0.78701688     299.42828     -201.25108      15649.36       25.012985      818.86638    
    381000   379853         822.88564     -398.69416      1221.5798      0.77201748     283.02121     -308.00015      15953.409      25.173938      751.22506    
    382000   380853         969.94411     -357.73642      1327.6805      0.78287115     307.60311      1265.856       15732.232      25.05706       1260.3802    
    383000   381853         847.50369     -390.54566      1238.0493      0.80307391     286.83695      738.2638       15336.459      24.845155      1012.6286    
    384000   382853         931.13137     -290.70775      1221.8391      0.75065501     283.08129     -193.39141      16407.418      25.410512      884.85564    
    385000   383853         870.32591     -349.24149      1219.5674      0.78158662     282.55497     -1197.217       15758.088      25.070779      595.18685    
    386000   384853         972.4442      -355.90882      1328.353       0.75910855     307.75892     -319.72333      16224.703      25.315835      896.79106    
    387000   385853         906.1375      -350.75814      1256.8956      0.79625575     291.20334     -90.212626      15467.782      24.915868      885.78718    
    388000   386853         999.97367     -305.90039      1305.8741      0.77343491     302.55089      353.11848      15924.172      25.158551      1081.9811    
    389000   387853         871.67549     -390.20842      1261.8839      0.77894613     292.35905      260.66313      15811.505      25.099076      931.783      
    390000   388853         967.84075     -352.90546      1320.7462      0.76804107     305.99654      931.46721      16036.005      25.217308      1185.6818    
    391000   389853         945.20397     -345.87349      1291.0775      0.79634166     299.12274      1205.4735      15466.113      24.914972      1217.1074    
    392000   390853         940.49351     -338.05345      1278.547       0.7617328      296.21962     -1821.682       16168.807      25.286729      510.93094    
    393000   391853         850.97649     -417.72473      1268.7012      0.78631937     293.93851     -851.80122      15663.242      25.020379      656.39756    
    394000   392853         953.19123     -364.0748       1317.266       0.77194814     305.19023      401.99607      15954.842      25.174692      1046.7297    
    395000   393853         952.14737     -331.70196      1283.8493      0.77762619     297.4481      -976.71529      15838.343      25.113269      726.53982    
    396000   394853         912.52655     -342.2877       1254.8143      0.79298174     290.72112      1181.263       15531.644      24.950111      1180.0981    
    397000   395853         958.69013     -316.07533      1274.7655      0.78778991     295.3435       3403.4827      15634.004      25.004801      1734.7043    
    398000   396853         1018.2613     -300.07808      1318.3394      0.77849981     305.43892     -802.79878      15820.57       25.103872      833.03417    
    399000   397853         958.22876     -330.63793      1288.8667      0.77921326     298.61054     -1352.4368      15806.084      25.096208      646.47107    
    400000   398853         914.33654     -379.43475      1293.7713      0.77479734     299.74686      597.5804       15896.17       25.143795      1052.8732    
    401000   399853         963.21876     -309.62847      1272.8472      0.76923561     294.89908     -86.313711      16011.103      25.204248      943.06403    
    402000   400853         921.41438     -376.45346      1297.8678      0.78776481     300.69597     -1512.0007      15634.502      25.005067      576.6583     
    403000   401853         935.48893     -348.09953      1283.5885      0.78320676     297.38766      1210.8305      15725.49       25.05348       1213.181     
    404000   402853         873.64564     -373.22036      1246.866       0.79165629     288.87963      398.94359      15557.649      24.964028      964.16289    
    405000   403853         941.04299     -343.53078      1284.5738      0.78164083     297.61594      322.39244      15756.995      25.0702        1015.1286    
    406000   404853         1008.1947     -332.13638      1340.3311      0.77304259     310.53405      1023.0649      15932.253      25.162806      1245.9095    
    407000   405853         954.27411     -332.74537      1287.0195      0.76830932     298.18257      3576.2339      16030.406      25.214373      1790.3512    
    408000   406853         901.89797     -357.91087      1259.8088      0.78413819     291.87829     -1232.6507      15706.811      25.043557      619.53746    
    409000   407853         918.53038     -368.86847      1287.3989      0.79437191     298.27047      1551.1604      15504.464      24.935548      1269.2737    
    410000   408853         989.71666     -333.93175      1323.6484      0.76622682     306.66893      523.69606      16073.975      25.237196      1112.4828    
    411000   409853         934.33888     -345.45308      1279.792       0.78997386     296.50807      930.70891      15590.782      24.981737      1145.9593    
    412000   410853         839.49689     -412.21755      1251.7144      0.76654539     290.00294     -303.53335      16067.294      25.233699      768.37144    
    413000   411853         942.28246     -395.26061      1337.5431      0.7702118      309.88811     -1221.6308      15990.81       25.193596      657.38648    
    414000   412853         866.3476      -376.63907      1242.9867      0.77409796     287.98085     -2489.0564      15910.532      25.151366      288.78995    
    415000   413853         941.16565     -306.10016      1247.2658      0.77411813     288.97226     -379.90609      15910.118      25.151147      853.015      
    416000   414853         1005.7872     -284.22368      1290.0108      0.76750706     298.87563     -523.32391      16047.162      25.223155      883.31294    
    417000   415853         912.372       -372.4804       1284.8524      0.7869301      297.68049      473.94087      15651.086      25.013905      1020.5514    
    418000   416853         892.57964     -410.86341      1303.4431      0.77012941     301.98766     -1125.4575      15992.521      25.194494      630.0841     
    419000   417853         879.77392     -384.12476      1263.8987      0.80133814     292.82584      343.1427       15369.68       24.863081      956.68971    
    420000   418853         930.3945      -319.49241      1249.8869      0.78250788     289.57953     -547.41401      15739.535      25.060937      804.73837    
    421000   419853         944.21829     -317.81358      1262.0319      0.76956209     292.39333     -701.8385       16004.31       25.200684      780.40466    
    422000   420853         984.92164     -287.72069      1272.6423      0.77769423     294.85161      251.11767      15836.958      25.112537      1042.9212    
    423000   421853         1012.3229     -301.05121      1313.3741      0.78094436     304.28854      290.21891      15771.047      25.077651      1079.0746    
    424000   422853         904.77468     -370.03807      1274.8127      0.78734248     295.35446      96.106706      15642.888      25.009537      926.70003    
    425000   423853         929.7228      -375.66839      1305.3912      0.78719816     302.43902      1071.1177      15645.756      25.011065      1174.1276    
    426000   424853         964.59822     -360.82995      1325.4282      0.7857341      307.08127     -1396.4757      15674.909      25.02659       645.36042    
    427000   425853         917.56562     -353.4973       1271.0629      0.78981265     294.48568     -306.02243      15593.965      24.983437      847.9694     
    428000   426853         889.88268     -397.89127      1287.774       0.76876382     298.35737      476.48337      16020.929      25.209403      1001.2125    
    429000   427853         918.58755     -363.86993      1282.4575      0.77029327     297.12563      991.11241      15989.119      25.192707      1149.7       
    430000   428853         884.07234     -386.33291      1270.4052      0.77699069     294.33331     -1869.3596      15851.297      25.120114      451.92329    
    431000   429853         897.88204     -427.38452      1325.2666      0.78435056     307.04383      2024.924       15702.558      25.041296      1361.6012    
    432000   430853         864.19601     -362.12485      1226.3209      0.78086853     284.11964      665.19576      15772.579      25.078462      1017.2089    
    433000   431853         904.13988     -406.8157       1310.9556      0.7636174      303.7282       1035.0592      16128.902      25.26591       1147.6101    
    434000   432853         926.58601     -387.81249      1314.3985      0.77928859     304.52587      198.77702      15804.556      25.095399      972.40277    
    435000   433853         949.72458     -365.952        1315.6766      0.79093485     304.82198      696.17998      15571.839      24.971615      1107.8266    
    436000   434853         896.03409     -381.21336      1277.2474      0.77867017     295.91854      86.03484       15817.108      25.102041      915.88029    
    437000   435853         970.56224     -360.3306       1330.8928      0.7741795      308.34735     -3664.0735      15908.856      25.150483      120.44459    
    438000   436853         938.72766     -347.28784      1286.0155      0.76212586     297.94997      661.44472      16160.468      25.282381      1094.6195    
    439000   437853         909.87542     -364.24954      1274.125       0.77354078     295.19511      453.80304      15921.992      25.157403      1015.2512    
    440000   438853         869.60884     -385.90529      1255.5141      0.78318216     290.88327     -465.40099      15725.985      25.053743      762.87036    
    441000   439853         976.04057     -304.0188       1280.0594      0.76110175     296.57002     -726.64041      16182.213      25.293716      804.55272    
    442000   440853         867.9505      -383.61933      1251.5698      0.79523298     289.96943     -1646.5006      15487.676      24.926545      496.05235    
    443000   441853         915.98186     -337.60563      1253.5875      0.76463445     290.4369      -168.64411      16107.449      25.254702      876.36557    
    444000   442853         942.76401     -353.95575      1296.7198      0.78486124     300.42998      430.37673      15692.341      25.035864      1041.2586    
    445000   443853         851.08469     -398.42499      1249.5097      0.76476115     289.49213     -1329.3032      16104.78       25.253308      538.86899    
    446000   444853         946.72599     -329.0836       1275.8096      0.7681404      295.58541     -1250.5883      16033.931      25.216221      654.29038    
    447000   445853         989.87462     -307.93511      1297.8097      0.76669425     300.68251     -532.82781      16064.175      25.232066      865.04398    
    448000   446853         906.05641     -356.5615       1262.6179      0.76039412     292.5291      -2322.557       16197.272      25.30156       357.42059    
    449000   447853         981.82487     -354.48634      1336.3112      0.77803973     309.60271      406.68663      15829.925      25.108819      1075.7139    
    450000   448853         962.30365     -330.27815      1292.5818      0.76718671     299.47127     -1327.5123      16053.863      25.226666      651.49436    
    451000   449853         997.17944     -347.63734      1344.8168      0.7773028      311.57332      181.09788      15844.933      25.116751      1039.0279    
    452000   450853         950.8637      -275.3147       1226.1784      0.76291183     284.08663      173.06835      16143.819      25.273696      991.61109    
    453000   451853         921.21747     -346.20635      1267.4238      0.80631824     293.64256     -1102.1698      15274.751      24.811787      675.69087    
    454000   452853         926.18171     -382.39463      1308.5763      0.78825545     303.17696      95.914243      15624.771      24.999878      948.03781    
    455000   453853         889.91244     -387.66928      1277.5817      0.80313908     295.99599      889.28151      15335.215      24.844483      1088.7988    
    456000   454853         899.79573     -374.21387      1274.0096      0.80209759     295.16838     -1792.696       15355.127      24.855231      498.34157    
    457000   455853         880.29122     -368.36528      1248.6565      0.78119069     289.29446     -336.73722      15766.074      25.075014      802.86455    
    458000   456853         919.13498     -378.23537      1297.3704      0.78033423     300.58071      2091.3731      15783.378      25.084185      1400.5364    
    459000   457853         960.56631     -355.27715      1315.8435      0.79012023     304.86064     -360.47332      15587.894      24.980194      878.61866    
    460000   458853         903.33725     -348.23742      1251.5747      0.78736102     289.97056     -1638.4732      15642.52       25.009341      529.55218    
    461000   459853         910.86258     -354.8224       1265.685       0.77299219     293.2397      -965.27032      15933.292      25.163353      686.56202    
    462000   460853         999.67882     -290.19342      1289.8722      0.74078955     298.84351     -609.76666      16625.924      25.522816      851.82745    
    463000   461853         973.00928     -322.77024      1295.7795      0.76672806     300.21214     -888.65285      16063.466      25.231695      764.8253     
    464000   462853         926.93956     -341.66033      1268.5999      0.77695984     293.91504      1903.4883      15851.927      25.120446      1366.9958    
    465000   463853         1020.4298     -281.48287      1301.9127      0.75881523     301.6331      -134.72961      16230.974      25.319096      988.5377     
    466000   464853         952.05853     -285.36743      1237.426       0.74834308     286.69252     -446.64159      16458.107      25.436653      844.85356    
    467000   465853         1036.5168     -241.92607      1278.4428      0.74346264     296.1955       757.5958       16566.146      25.492191      1219.5521    
    468000   466853         962.55663     -318.25276      1280.8094      0.77823461     296.74379     -1616.0328      15825.961      25.106723      589.56752    
    469000   467853         988.27871     -313.20612      1301.4848      0.78130186     301.53397      271.13868      15763.831      25.073825      1050.6133    
    470000   468853         1033.9684     -235.71436      1269.6827      0.74719502     294.16591     -32.227218      16483.395      25.449674      1026.2212    
    471000   469853         972.64507     -337.34423      1309.9893      0.77810297     303.50432      410.14975      15828.638      25.108139      1067.3259    
    472000   470853         995.43375     -283.41488      1278.8486      0.77796448     296.28951      1607.5658      15831.456      25.109628      1366.5975    
    473000   471853         952.52931     -328.26851      1280.7978      0.76998484     296.74111     -534.98392      15995.523      25.196071      827.72917    
    474000   472853         1001.8366     -289.1257       1290.9623      0.76666904     299.09607     -1745.6745      16064.703      25.232342      592.84739    
    475000   473853         939.22586     -323.16785      1262.3937      0.75455897     292.47716     -1873.0999      16322.529      25.366613      493.33941    
    476000   474853         972.9728      -338.2061       1311.1789      0.79453422     303.77994     -2263.5241      15501.296      24.93385       461.25676    
    477000   475853         937.69191     -348.74887      1286.4408      0.76820292     298.0485      -634.19545      16032.626      25.215537      789.40471    
    478000   476853         862.84772     -401.39319      1264.2409      0.76744402     292.90513      68.872059      16048.481      25.223846      878.96727    
    479000   477853         932.33339     -328.54852      1260.8819      0.78174141     292.1269       908.6628       15754.967      25.069125      1141.1169    
    480000   478853         965.0725      -341.7476       1306.8201      0.76843953     302.77007     -1047.0012      16027.69       25.212949      720.33867    
    481000   479853         987.45055     -312.16766      1299.6182      0.75832569     301.1015       362.10433      16241.452      25.324543      1073.2204    
    482000   480853         995.58393     -303.65802      1299.242       0.77089731     301.01433      286.99946      15976.59       25.186126      1062.4554    
    483000   481853         875.5293      -368.49132      1244.0206      0.7635603      288.2204      -1852.3557      16130.108      25.266539      439.77913    
    484000   482853         958.13764     -322.10444      1280.2421      0.77192475     296.61235     -2634.611       15955.325      25.174946      345.08459    
    485000   483853         981.66907     -343.40077      1325.0698      0.78265922     306.99825      1281.3268      15736.492      25.059321      1275.7343    
    486000   484853         970.08594     -315.92102      1286.007       0.77825282     297.94799     -230.77808      15825.591      25.106527      916.82236    
    487000   485853         920.79438     -363.93283      1284.7272      0.7651618      297.65149     -1351.2443      16096.348      25.248899      603.5915     
    488000   486853         991.56243     -321.80833      1313.3708      0.74995234     304.28776     -247.38949      16422.791      25.418446      932.31028    
    489000   487853         997.3701      -268.19835      1265.5685      0.75448106     293.2127      -802.24159      16324.214      25.367486      806.37891    
    490000   488853         933.93715     -318.0306       1251.9677      0.7741213      290.06163      834.72765      15910.052      25.151113      1127.6205    
    491000   489853         1030.3708     -303.90854      1334.2794      0.78239732     309.13196     -970.53162      15741.76       25.062117      807.55869    
    492000   490853         929.98706     -352.88194      1282.869       0.75703468     297.22097     -135.91364      16269.15       25.338931      897.73899    
    493000   491853         900.55996     -369.44176      1270.0017      0.78943492     294.23982      1790.4325      15601.426      24.987421      1307.9385    
    494000   492853         985.25259     -325.34785      1310.6004      0.77042598     303.64592      2170.237       15986.364      25.191261      1491.2319    
    495000   493853         945.02485     -341.87137      1286.8962      0.77533426     298.15401     -507.94841      15885.162      25.13799       827.34905    
    496000   494853         954.63165     -341.74246      1296.3741      0.78422643     300.3499      -2409.3348      15705.044      25.042617      402.79289    
    497000   495853         963.1633      -335.15962      1298.3229      0.76970525     300.8014       551.525        16001.334      25.199121      1091.8689    
    498000   496853         968.40586     -315.21347      1283.6193      0.77450266     297.39481     -2062.4763      15902.218      25.146984      490.08142    
    499000   497853         934.34065     -345.27452      1279.6152      0.76627678     296.46711      1077.73        16072.927      25.236647      1186.9683    
    500000   498853         973.09448     -303.62318      1276.7177      0.77637301     295.7958       7.9172502      15863.909      25.126774      974.92621    
    501000   499853         938.57326     -364.28374      1302.857       0.78400044     301.85188      1165.3983      15709.571      25.045023      1205.5753    
    501147   500000         956.42106     -346.03482      1302.4559      0.78647036     301.75895      19.339303      15660.235      25.018778      960.83794    
Loop time of 669.046 on 12 procs for 500000 steps with 1449 atoms

Performance: 64.570 ns/day, 0.372 hours/ns, 747.332 timesteps/s
99.2% CPU use with 12 MPI tasks x 1 OpenMP threads

MPI task timing breakdown:
Section |  min time  |  avg time  |  max time  |%varavg| %total
---------------------------------------------------------------
Pair    | 374.37     | 394.8      | 414.07     |  63.8 | 59.01
Bond    | 18.363     | 18.595     | 18.845     |   3.9 |  2.78
Kspace  | 106.24     | 126.98     | 149.63     | 120.4 | 18.98
Neigh   | 16.287     | 16.337     | 16.492     |   1.4 |  2.44
Comm    | 92.594     | 94.552     | 95.527     |   8.2 | 14.13
Output  | 0.1456     | 0.1482     | 0.17541    |   2.1 |  0.02
Modify  | 13.786     | 14.679     | 15.897     |  18.3 |  2.19
Other   |            | 2.96       |            |       |  0.44

Nlocal:         120.75 ave         130 max         107 min
Histogram: 1 0 0 0 3 2 1 3 1 1
Nghost:        5354.17 ave        5465 max        5262 min
Histogram: 1 2 2 0 2 1 2 0 1 1
Neighs:        64159.8 ave       71018 max       53051 min
Histogram: 1 0 0 0 2 2 2 1 3 1

Total # of neighbors = 769917
Ave neighs/atom = 531.34369
Ave special neighs/atom = 7.3333333
Neighbor list builds = 9349
Dangerous builds = 0
write_data etho_npt_equil.data
System init for write_data ...
PPPM initialization ...
  using 12-bit tables for long-range coulomb (src/lammps-23Jun2022/src/kspace.cpp:342)
  G vector (1/distance) = 0.2184402
  grid = 9 9 9
  stencil order = 5
  estimated absolute RMS force accuracy = 0.02120148
  estimated relative force accuracy = 6.3847629e-05
  using double precision KISS FFT
  3d grid and FFT values/proc = 1210 81
Generated 10 of 10 mixed pair_coeff terms from arithmetic mixing rule


Total wall time: 0:11:13
