LAMMPS (23 Jun 2022)
  using 1 OpenMP thread(s) per MPI task
log etho_npt.log
